
     Program BANDS v.7.1 starts on  9Dec2022 at 17: 5:55 
        Git branch: develop
        Last git commit: 9ddde6fa44e0fb1c7debb78532a4b581a6ef82fd
        Last git commit date: Fri Oct 28 07:34:35 2022 +0000
        Last git commit subject: Merge branch 'fix_hubbardocc' into 'develop'

     This program is part of the open-source Quantum ESPRESSO suite
     for quantum simulation of materials; please cite
         "P. Giannozzi et al., J. Phys.:Condens. Matter 21 395502 (2009);
         "P. Giannozzi et al., J. Phys.:Condens. Matter 29 465901 (2017);
         "P. Giannozzi et al., J. Chem. Phys. 152 154105 (2020);
          URL http://www.quantum-espresso.org", 
     in publications or presentations arising from this work. More details at
     http://www.quantum-espresso.org/quote

     Parallel version (MPI), running on     1 processors

     MPI processes distributed on     1 nodes
     0 MiB available memory on the printing compute node when the environment starts


     Reading xml data from directory:

     ./out/si.save/

     IMPORTANT: XC functional enforced from input :
     Exchange-correlation= PBESOL
                           (   1   4  10   8   0   0   0)
     Any further DFT definition will be discarded
     Please, verify this is what you really want


     G-vector sticks info
     --------------------
     sticks:   dense  smooth     PW     G-vecs:    dense   smooth      PW
     Sum        2839     955    283                99965    19339    3071

     Using Slab Decomposition

     Reading collected, re-writing distributed wavefunctions
     high-symmetry point:  0.5000-0.5000 0.5000   x coordinate   0.0000
     high-symmetry point:  0.0000 0.0000 0.0000   x coordinate   0.8660
     high-symmetry point:  1.0000 0.0000 0.0000   x coordinate   1.8660
     high-symmetry point:  1.0000-0.2500 0.2500   x coordinate   2.2196
     high-symmetry point:  0.0000 0.0000 0.0000   x coordinate   3.2802

     Plottable bands (eV) written to file si.bands.gnu
     Bands written to file si.bands

 **************************************************************************

                    xk=(   0.50000,  -0.50000,   0.50000  )

     zone border point and non-symmorphic group 
     symmetry decomposition not available

 **************************************************************************

 **************************************************************************

                    xk=(   0.47500,  -0.47500,   0.47500  )

     point group C_3v (3m)  
     there are  3 classes
     the character table:

       E     2C3   3s_v 
A_1    1.00  1.00  1.00
A_2    1.00  1.00 -1.00
E      2.00 -1.00  0.00

     the symmetry operations in each class and the name of the first element:

     E        1
                                                                 
     2C3      2    3
                                                                 
     3s_v     4    5    6
                                                                 

     Band symmetry, C_3v (3m)   point group:

     e(  1 -  1) =     -4.23338  eV     1   --> A_1  L_1       
     e(  2 -  2) =     -1.50984  eV     1   --> A_1  L_1       
     e(  3 -  4) =      3.82859  eV     2   --> E    L_3       
     e(  5 -  5) =      5.95437  eV     1   --> A_1  L_1       
     e(  6 -  7) =      8.23109  eV     2   --> E    L_3       
     e(  8 -  8) =     12.26472  eV     1   --> A_1  L_1       

 **************************************************************************

 **************************************************************************

                    xk=(   0.45000,  -0.45000,   0.45000  )

     Band symmetry, C_3v (3m)   point group:

     e(  1 -  1) =     -4.31542  eV     1   --> A_1  L_1       
     e(  2 -  2) =     -1.38541  eV     1   --> A_1  L_1       
     e(  3 -  4) =      3.84121  eV     2   --> E    L_3       
     e(  5 -  5) =      5.96968  eV     1   --> A_1  L_1       
     e(  6 -  7) =      8.24167  eV     2   --> E    L_3       
     e(  8 -  8) =     12.27943  eV     1   --> A_1  L_1       

 **************************************************************************

 **************************************************************************

                    xk=(   0.42500,  -0.42500,   0.42500  )

     Band symmetry, C_3v (3m)   point group:

     e(  1 -  1) =     -4.43736  eV     1   --> A_1  L_1       
     e(  2 -  2) =     -1.19293  eV     1   --> A_1  L_1       
     e(  3 -  4) =      3.86221  eV     2   --> E    L_3       
     e(  5 -  5) =      5.99512  eV     1   --> A_1  L_1       
     e(  6 -  7) =      8.25806  eV     2   --> E    L_3       
     e(  8 -  8) =     12.29872  eV     1   --> A_1  L_1       

 **************************************************************************

 **************************************************************************

                    xk=(   0.40000,  -0.40000,   0.40000  )

     Band symmetry, C_3v (3m)   point group:

     e(  1 -  1) =     -4.58492  eV     1   --> A_1  L_1       
     e(  2 -  2) =     -0.94685  eV     1   --> A_1  L_1       
     e(  3 -  4) =      3.89154  eV     2   --> E    L_3       
     e(  5 -  5) =      6.03057  eV     1   --> A_1  L_1       
     e(  6 -  7) =      8.27834  eV     2   --> E    L_3       
     e(  8 -  8) =     12.31090  eV     1   --> A_1  L_1       

 **************************************************************************

 **************************************************************************

                    xk=(   0.37500,  -0.37500,   0.37500  )

     Band symmetry, C_3v (3m)   point group:

     e(  1 -  1) =     -4.74623  eV     1   --> A_1  L_1       
     e(  2 -  2) =     -0.65922  eV     1   --> A_1  L_1       
     e(  3 -  4) =      3.92910  eV     2   --> E    L_3       
     e(  5 -  5) =      6.07584  eV     1   --> A_1  L_1       
     e(  6 -  7) =      8.29970  eV     2   --> E    L_3       
     e(  8 -  8) =     12.28850  eV     1   --> A_1  L_1       

 **************************************************************************

 **************************************************************************

                    xk=(   0.35000,  -0.35000,   0.35000  )

     Band symmetry, C_3v (3m)   point group:

     e(  1 -  1) =     -4.91268  eV     1   --> A_1  L_1       
     e(  2 -  2) =     -0.33900  eV     1   --> A_1  L_1       
     e(  3 -  4) =      3.97475  eV     2   --> E    L_3       
     e(  5 -  5) =      6.13068  eV     1   --> A_1  L_1       
     e(  6 -  7) =      8.31838  eV     2   --> E    L_3       
     e(  8 -  8) =     12.17832  eV     1   --> A_1  L_1       

 **************************************************************************

 **************************************************************************

                    xk=(   0.32500,  -0.32500,   0.32500  )

     Band symmetry, C_3v (3m)   point group:

     e(  1 -  1) =     -5.07830  eV     1   --> A_1  L_1       
     e(  2 -  2) =      0.00748  eV     1   --> A_1  L_1       
     e(  3 -  4) =      4.02829  eV     2   --> E    L_3       
     e(  5 -  5) =      6.19470  eV     1   --> A_1  L_1       
     e(  6 -  7) =      8.32969  eV     2   --> E    L_3       
     e(  8 -  8) =     11.93817  eV     1   --> A_1  L_1       

 **************************************************************************

 **************************************************************************

                    xk=(   0.30000,  -0.30000,   0.30000  )

     Band symmetry, C_3v (3m)   point group:

     e(  1 -  1) =     -5.23901  eV     1   --> A_1  L_1       
     e(  2 -  2) =      0.37561  eV     1   --> A_1  L_1       
     e(  3 -  4) =      4.08940  eV     2   --> E    L_3       
     e(  5 -  5) =      6.26738  eV     1   --> A_1  L_1       
     e(  6 -  7) =      8.32832  eV     2   --> E    L_3       
     e(  8 -  8) =     11.59817  eV     1   --> A_1  L_1       

 **************************************************************************

 **************************************************************************

                    xk=(   0.27500,  -0.27500,   0.27500  )

     Band symmetry, C_3v (3m)   point group:

     e(  1 -  1) =     -5.39199  eV     1   --> A_1  L_1       
     e(  2 -  2) =      0.76195  eV     1   --> A_1  L_1       
     e(  3 -  4) =      4.15767  eV     2   --> E    L_3       
     e(  5 -  5) =      6.34804  eV     1   --> A_1  L_1       
     e(  6 -  7) =      8.30888  eV     2   --> E    L_3       
     e(  8 -  8) =     11.20829  eV     1   --> A_1  L_1       

 **************************************************************************

 **************************************************************************

                    xk=(   0.25000,  -0.25000,   0.25000  )

     Band symmetry, C_3v (3m)   point group:

     e(  1 -  1) =     -5.53529  eV     1   --> A_1  L_1       
     e(  2 -  2) =      1.16371  eV     1   --> A_1  L_1       
     e(  3 -  4) =      4.23246  eV     2   --> E    L_3       
     e(  5 -  5) =      6.43570  eV     1   --> A_1  L_1       
     e(  6 -  7) =      8.26706  eV     2   --> E    L_3       
     e(  8 -  8) =     10.79554  eV     1   --> A_1  L_1       

 **************************************************************************

 **************************************************************************

                    xk=(   0.22500,  -0.22500,   0.22500  )

     Band symmetry, C_3v (3m)   point group:

     e(  1 -  1) =     -5.66749  eV     1   --> A_1  L_1       
     e(  2 -  2) =      1.57844  eV     1   --> A_1  L_1       
     e(  3 -  4) =      4.31295  eV     2   --> E    L_3       
     e(  5 -  5) =      6.52910  eV     1   --> A_1  L_1       
     e(  6 -  7) =      8.20081  eV     2   --> E    L_3       
     e(  8 -  8) =     10.37153  eV     1   --> A_1  L_1       

 **************************************************************************

 **************************************************************************

                    xk=(   0.20000,  -0.20000,   0.20000  )

     Band symmetry, C_3v (3m)   point group:

     e(  1 -  1) =     -5.78759  eV     1   --> A_1  L_1       
     e(  2 -  2) =      2.00374  eV     1   --> A_1  L_1       
     e(  3 -  4) =      4.39797  eV     2   --> E    L_3       
     e(  5 -  5) =      6.62647  eV     1   --> A_1  L_1       
     e(  6 -  7) =      8.11129  eV     2   --> E    L_3       
     e(  8 -  8) =      9.94156  eV     1   --> A_1  L_1       

 **************************************************************************

 **************************************************************************

                    xk=(   0.17500,  -0.17500,   0.17500  )

     Band symmetry, C_3v (3m)   point group:

     e(  1 -  1) =     -5.89482  eV     1   --> A_1  L_1       
     e(  2 -  2) =      2.43696  eV     1   --> A_1  L_1       
     e(  3 -  4) =      4.48594  eV     2   --> E    L_3       
     e(  5 -  5) =      6.72546  eV     1   --> A_1  L_1       
     e(  6 -  7) =      8.00287  eV     2   --> E    L_3       
     e(  8 -  8) =      9.50868  eV     1   --> A_1  L_1       

 **************************************************************************

 **************************************************************************

                    xk=(   0.15000,  -0.15000,   0.15000  )

     Band symmetry, C_3v (3m)   point group:

     e(  1 -  1) =     -5.98862  eV     1   --> A_1  L_1       
     e(  2 -  2) =      2.87487  eV     1   --> A_1  L_1       
     e(  3 -  4) =      4.57475  eV     2   --> E    L_3       
     e(  5 -  5) =      6.82282  eV     1   --> A_1  L_1       
     e(  6 -  7) =      7.88242  eV     2   --> E    L_3       
     e(  8 -  8) =      9.07579  eV     1   --> A_1  L_1       

 **************************************************************************

 **************************************************************************

                    xk=(   0.12500,  -0.12500,   0.12500  )

     Band symmetry, C_3v (3m)   point group:

     e(  1 -  1) =     -6.06858  eV     1   --> A_1  L_1       
     e(  2 -  2) =      3.31300  eV     1   --> A_1  L_1       
     e(  3 -  4) =      4.66158  eV     2   --> E    L_3       
     e(  5 -  5) =      6.91397  eV     1   --> A_1  L_1       
     e(  6 -  7) =      7.75824  eV     2   --> E    L_3       
     e(  8 -  8) =      8.64736  eV     1   --> A_1  L_1       

 **************************************************************************

 **************************************************************************

                    xk=(   0.10000,  -0.10000,   0.10000  )

     Band symmetry, C_3v (3m)   point group:

     e(  1 -  1) =     -6.13437  eV     1   --> A_1  L_1       
     e(  2 -  2) =      3.74446  eV     1   --> A_1  L_1       
     e(  3 -  4) =      4.74282  eV     2   --> E    L_3       
     e(  5 -  5) =      6.99176  eV     1   --> A_1  L_1       
     e(  6 -  7) =      7.63917  eV     2   --> E    L_3       
     e(  8 -  8) =      8.23213  eV     1   --> A_1  L_1       

 **************************************************************************

 **************************************************************************

                    xk=(   0.07500,  -0.07500,   0.07500  )

     Band symmetry, C_3v (3m)   point group:

     e(  1 -  1) =     -6.18576  eV     1   --> A_1  L_1       
     e(  2 -  2) =      4.15720  eV     1   --> A_1  L_1       
     e(  3 -  4) =      4.81403  eV     2   --> E    L_3       
     e(  5 -  5) =      7.04263  eV     1   --> A_1  L_1       
     e(  6 -  7) =      7.53408  eV     2   --> E    L_3       
     e(  8 -  8) =      7.85006  eV     1   --> A_1  L_1       

 **************************************************************************

 **************************************************************************

                    xk=(   0.05000,  -0.05000,   0.05000  )

     Band symmetry, C_3v (3m)   point group:

     e(  1 -  1) =     -6.22259  eV     1   --> A_1  L_1       
     e(  2 -  2) =      4.52779  eV     1   --> A_1  L_1       
     e(  3 -  4) =      4.87022  eV     2   --> E    L_3       
     e(  5 -  5) =      7.03406  eV     1   --> A_1  L_1       
     e(  6 -  7) =      7.45135  eV     2   --> E    L_3       
     e(  8 -  8) =      7.55149  eV     1   --> A_1  L_1       

 **************************************************************************

 **************************************************************************

                    xk=(   0.02500,  -0.02500,   0.02500  )

     Band symmetry, C_3v (3m)   point group:

     e(  1 -  1) =     -6.24472  eV     1   --> A_1  L_1       
     e(  2 -  2) =      4.80835  eV     1   --> A_1  L_1       
     e(  3 -  4) =      4.90645  eV     2   --> E    L_3       
     e(  5 -  5) =      6.93648  eV     1   --> A_1  L_1       
     e(  6 -  7) =      7.39828  eV     2   --> E    L_3       
     e(  8 -  8) =      7.40891  eV     1   --> A_1  L_1       

 **************************************************************************

 **************************************************************************

                    xk=(   0.00000,   0.00000,   0.00000  )

     point group O_h (m-3m) 
     there are 10 classes
     the character table:

       E     8C3   3C2   6C4   6C2'  i     8S6   3s_h  6S4   6s_d 
A_1g   1.00  1.00  1.00  1.00  1.00  1.00  1.00  1.00  1.00  1.00
A_2g   1.00  1.00  1.00 -1.00 -1.00  1.00  1.00  1.00 -1.00 -1.00
E_g    2.00 -1.00  2.00  0.00  0.00  2.00 -1.00  2.00  0.00  0.00
T_1g   3.00  0.00 -1.00  1.00 -1.00  3.00  0.00 -1.00  1.00 -1.00
T_2g   3.00  0.00 -1.00 -1.00  1.00  3.00  0.00 -1.00 -1.00  1.00
A_1u   1.00  1.00  1.00  1.00  1.00 -1.00 -1.00 -1.00 -1.00 -1.00
A_2u   1.00  1.00  1.00 -1.00 -1.00 -1.00 -1.00 -1.00  1.00  1.00
E_u    2.00 -1.00  2.00  0.00  0.00 -2.00  1.00 -2.00  0.00  0.00
T_1u   3.00  0.00 -1.00  1.00 -1.00 -3.00  0.00  1.00 -1.00  1.00
T_2u   3.00  0.00 -1.00 -1.00  1.00 -3.00  0.00  1.00  1.00 -1.00

     the symmetry operations in each class and the name of the first element:

     E        1
                                                                 
     8C3     17   19   20   18   24   21   22   23
                                                                 
     3C2      2    4    3
                                                                 
     6C4      7    8   15   16   12   11
                                                                 
     6C2'     5    6   14   13   10    9
                                                                 
     i       25
                                                                 
     8S6     41   43   44   42   48   45   46   47
                                                                 
     3s_h    26   28   27
                                                                 
     6S4     31   32   39   40   36   35
                                                                 
     6s_d    29   30   38   37   34   33
                                                                 

     Band symmetry, O_h (m-3m)  point group:

     e(  1 -  1) =     -6.25211  eV     1   --> A_1g G_1   G_1+
     e(  2 -  4) =      4.91900  eV     3   --> T_2g G_25' G_5+
     e(  5 -  5) =      6.86865  eV     1   --> A_2u G_2'  G_2-
     e(  6 -  8) =      7.37997  eV     3   --> T_1u G_15  G_4-

 **************************************************************************

 **************************************************************************

                    xk=(   0.03333,   0.00000,   0.00000  )

     point group C_4v (4mm) 
     there are  5 classes
     the character table:

       E     2C4   C2    2s_v  2s_d 
A_1    1.00  1.00  1.00  1.00  1.00
A_2    1.00  1.00  1.00 -1.00 -1.00
B_1    1.00 -1.00  1.00  1.00 -1.00
B_2    1.00 -1.00  1.00 -1.00  1.00
E      2.00  0.00 -2.00  0.00  0.00

     the symmetry operations in each class and the name of the first element:

     E        1
                                                                 
     2C4      3    4
                                                                 
     C2       2
                                                                 
     2s_v     5    6
                                                                 
     2s_d     7    8
                                                                 

     Band symmetry, C_4v (4mm)  point group:

     e(  1 -  1) =     -6.24773  eV     1   --> A_1  G_1 D_1   
     e(  2 -  2) =      4.87264  eV     1   --> B_2  G_4 D_2'  
     e(  3 -  4) =      4.90085  eV     2   --> E    G_5 D_5   
     e(  5 -  5) =      6.91430  eV     1   --> B_2  G_4 D_2'  
     e(  6 -  6) =      7.36852  eV     1   --> A_1  G_1 D_1   
     e(  7 -  8) =      7.40350  eV     2   --> E    G_5 D_5   

 **************************************************************************

 **************************************************************************

                    xk=(   0.06667,   0.00000,   0.00000  )

     Band symmetry, C_4v (4mm)  point group:

     e(  1 -  1) =     -6.23460  eV     1   --> A_1  G_1 D_1   
     e(  2 -  2) =      4.74496  eV     1   --> B_2  G_4 D_2'  
     e(  3 -  4) =      4.84847  eV     2   --> E    G_5 D_5   
     e(  5 -  5) =      7.03953  eV     1   --> B_2  G_4 D_2'  
     e(  6 -  6) =      7.33483  eV     1   --> A_1  G_1 D_1   
     e(  7 -  8) =      7.47200  eV     2   --> E    G_5 D_5   

 **************************************************************************

 **************************************************************************

                    xk=(   0.10000,   0.00000,   0.00000  )

     Band symmetry, C_4v (4mm)  point group:

     e(  1 -  1) =     -6.21273  eV     1   --> A_1  G_1 D_1   
     e(  2 -  2) =      4.55962  eV     1   --> B_2  G_4 D_2'  
     e(  3 -  4) =      4.76718  eV     2   --> E    G_5 D_5   
     e(  5 -  5) =      7.21950  eV     1   --> B_2  G_4 D_2'  
     e(  6 -  6) =      7.28073  eV     1   --> A_1  G_1 D_1   
     e(  7 -  8) =      7.58013  eV     2   --> E    G_5 D_5   

 **************************************************************************

 **************************************************************************

                    xk=(   0.13333,   0.00000,   0.00000  )

     Band symmetry, C_4v (4mm)  point group:

     e(  1 -  1) =     -6.18212  eV     1   --> A_1  G_1 D_1   
     e(  2 -  2) =      4.33777  eV     1   --> B_2  G_4 D_2'  
     e(  3 -  4) =      4.66368  eV     2   --> E    G_5 D_5   
     e(  5 -  5) =      7.20895  eV     1   --> A_1  G_1 D_1   
     e(  6 -  6) =      7.43092  eV     1   --> B_2  G_4 D_2'  
     e(  7 -  8) =      7.72113  eV     2   --> E    G_5 D_5   

 **************************************************************************

 **************************************************************************

                    xk=(   0.16667,   0.00000,   0.00000  )

     Band symmetry, C_4v (4mm)  point group:

     e(  1 -  1) =     -6.14280  eV     1   --> A_1  G_1 D_1   
     e(  2 -  2) =      4.09361  eV     1   --> B_2  G_4 D_2'  
     e(  3 -  4) =      4.54444  eV     2   --> E    G_5 D_5   
     e(  5 -  5) =      7.12267  eV     1   --> A_1  G_1 D_1   
     e(  6 -  6) =      7.65609  eV     1   --> B_2  G_4 D_2'  
     e(  7 -  8) =      7.88846  eV     2   --> E    G_5 D_5   

 **************************************************************************

 **************************************************************************

                    xk=(   0.20000,   0.00000,   0.00000  )

     Band symmetry, C_4v (4mm)  point group:

     e(  1 -  1) =     -6.09480  eV     1   --> A_1  G_1 D_1   
     e(  2 -  2) =      3.83577  eV     1   --> B_2  G_4 D_2'  
     e(  3 -  4) =      4.41488  eV     2   --> E    G_5 D_5   
     e(  5 -  5) =      7.02521  eV     1   --> A_1  G_1 D_1   
     e(  6 -  6) =      7.88082  eV     1   --> B_2  G_4 D_2'  
     e(  7 -  8) =      8.07661  eV     2   --> E    G_5 D_5   

 **************************************************************************

 **************************************************************************

                    xk=(   0.23333,   0.00000,   0.00000  )

     Band symmetry, C_4v (4mm)  point group:

     e(  1 -  1) =     -6.03815  eV     1   --> A_1  G_1 D_1   
     e(  2 -  2) =      3.56947  eV     1   --> B_2  G_4 D_2'  
     e(  3 -  4) =      4.27927  eV     2   --> E    G_5 D_5   
     e(  5 -  5) =      6.91972  eV     1   --> A_1  G_1 D_1   
     e(  6 -  6) =      8.09136  eV     1   --> B_2  G_4 D_2'  
     e(  7 -  8) =      8.28121  eV     2   --> E    G_5 D_5   

 **************************************************************************

 **************************************************************************

                    xk=(   0.26667,   0.00000,   0.00000  )

     Band symmetry, C_4v (4mm)  point group:

     e(  1 -  1) =     -5.97289  eV     1   --> A_1  G_1 D_1   
     e(  2 -  2) =      3.29791  eV     1   --> B_2  G_4 D_2'  
     e(  3 -  4) =      4.14081  eV     2   --> E    G_5 D_5   
     e(  5 -  5) =      6.80907  eV     1   --> A_1  G_1 D_1   
     e(  6 -  6) =      8.27198  eV     1   --> B_2  G_4 D_2'  
     e(  7 -  8) =      8.49895  eV     2   --> E    G_5 D_5   

 **************************************************************************

 **************************************************************************

                    xk=(   0.30000,   0.00000,   0.00000  )

     Band symmetry, C_4v (4mm)  point group:

     e(  1 -  1) =     -5.89905  eV     1   --> A_1  G_1 D_1   
     e(  2 -  2) =      3.02310  eV     1   --> B_2  G_4 D_2'  
     e(  3 -  4) =      4.00191  eV     2   --> E    G_5 D_5   
     e(  5 -  5) =      6.69577  eV     1   --> A_1  G_1 D_1   
     e(  6 -  6) =      8.40420  eV     1   --> B_2  G_4 D_2'  
     e(  7 -  8) =      8.72730  eV     2   --> E    G_5 D_5   

 **************************************************************************

 **************************************************************************

                    xk=(   0.33333,   0.00000,   0.00000  )

     Band symmetry, C_4v (4mm)  point group:

     e(  1 -  1) =     -5.81669  eV     1   --> A_1  G_1 D_1   
     e(  2 -  2) =      2.74638  eV     1   --> B_2  G_4 D_2'  
     e(  3 -  4) =      3.86439  eV     2   --> E    G_5 D_5   
     e(  5 -  5) =      6.58197  eV     1   --> A_1  G_1 D_1   
     e(  6 -  6) =      8.47001  eV     1   --> B_2  G_4 D_2'  
     e(  7 -  8) =      8.96434  eV     2   --> E    G_5 D_5   

 **************************************************************************

 **************************************************************************

                    xk=(   0.36667,   0.00000,   0.00000  )

     Band symmetry, C_4v (4mm)  point group:

     e(  1 -  1) =     -5.72587  eV     1   --> A_1  G_1 D_1   
     e(  2 -  2) =      2.46863  eV     1   --> B_2  G_4 D_2'  
     e(  3 -  4) =      3.72960  eV     2   --> E    G_5 D_5   
     e(  5 -  5) =      6.46947  eV     1   --> A_1  G_1 D_1   
     e(  6 -  6) =      8.46011  eV     1   --> B_2  G_4 D_2'  
     e(  7 -  8) =      9.20859  eV     2   --> E    G_5 D_5   

 **************************************************************************

 **************************************************************************

                    xk=(   0.40000,   0.00000,   0.00000  )

     Band symmetry, C_4v (4mm)  point group:

     e(  1 -  1) =     -5.62666  eV     1   --> A_1  G_1 D_1   
     e(  2 -  2) =      2.19047  eV     1   --> B_2  G_4 D_2'  
     e(  3 -  4) =      3.59860  eV     2   --> E    G_5 D_5   
     e(  5 -  5) =      6.35980  eV     1   --> A_1  G_1 D_1   
     e(  6 -  6) =      8.38011  eV     1   --> B_2  G_4 D_2'  
     e(  7 -  8) =      9.45888  eV     2   --> E    G_5 D_5   

 **************************************************************************

 **************************************************************************

                    xk=(   0.43333,   0.00000,   0.00000  )

     Band symmetry, C_4v (4mm)  point group:

     e(  1 -  1) =     -5.51912  eV     1   --> A_1  G_1 D_1   
     e(  2 -  2) =      1.91237  eV     1   --> B_2  G_4 D_2'  
     e(  3 -  4) =      3.47220  eV     2   --> E    G_5 D_5   
     e(  5 -  5) =      6.25423  eV     1   --> A_1  G_1 D_1   
     e(  6 -  6) =      8.24672  eV     1   --> B_2  G_4 D_2'  
     e(  7 -  8) =      9.71431  eV     2   --> E    G_5 D_5   

 **************************************************************************

 **************************************************************************

                    xk=(   0.46667,   0.00000,   0.00000  )

     Band symmetry, C_4v (4mm)  point group:

     e(  1 -  1) =     -5.40334  eV     1   --> A_1  G_1 D_1   
     e(  2 -  2) =      1.63468  eV     1   --> B_2  G_4 D_2'  
     e(  3 -  4) =      3.35104  eV     2   --> E    G_5 D_5   
     e(  5 -  5) =      6.15385  eV     1   --> A_1  G_1 D_1   
     e(  6 -  6) =      8.07857  eV     1   --> B_2  G_4 D_2'  
     e(  7 -  8) =      9.97413  eV     2   --> E    G_5 D_5   

 **************************************************************************

 **************************************************************************

                    xk=(   0.50000,   0.00000,   0.00000  )

     Band symmetry, C_4v (4mm)  point group:

     e(  1 -  1) =     -5.27941  eV     1   --> A_1  G_1 D_1   
     e(  2 -  2) =      1.35769  eV     1   --> B_2  G_4 D_2'  
     e(  3 -  4) =      3.23563  eV     2   --> E    G_5 D_5   
     e(  5 -  5) =      6.05954  eV     1   --> A_1  G_1 D_1   
     e(  6 -  6) =      7.89075  eV     1   --> B_2  G_4 D_2'  
     e(  7 -  8) =     10.23776  eV     2   --> E    G_5 D_5   

 **************************************************************************

 **************************************************************************

                    xk=(   0.53333,   0.00000,   0.00000  )

     Band symmetry, C_4v (4mm)  point group:

     e(  1 -  1) =     -5.14742  eV     1   --> A_1  G_1 D_1   
     e(  2 -  2) =      1.08165  eV     1   --> B_2  G_4 D_2'  
     e(  3 -  4) =      3.12639  eV     2   --> E    G_5 D_5   
     e(  5 -  5) =      5.97209  eV     1   --> A_1  G_1 D_1   
     e(  6 -  6) =      7.69387  eV     1   --> B_2  G_4 D_2'  
     e(  7 -  8) =     10.50470  eV     2   --> E    G_5 D_5   

 **************************************************************************

 **************************************************************************

                    xk=(   0.56667,   0.00000,   0.00000  )

     Band symmetry, C_4v (4mm)  point group:

     e(  1 -  1) =     -5.00748  eV     1   --> A_1  G_1 D_1   
     e(  2 -  2) =      0.80682  eV     1   --> B_2  G_4 D_2'  
     e(  3 -  4) =      3.02367  eV     2   --> E    G_5 D_5   
     e(  5 -  5) =      5.89216  eV     1   --> A_1  G_1 D_1   
     e(  6 -  6) =      7.49505  eV     1   --> B_2  G_4 D_2'  
     e(  7 -  8) =     10.77453  eV     2   --> E    G_5 D_5   

 **************************************************************************

 **************************************************************************

                    xk=(   0.60000,   0.00000,   0.00000  )

     Band symmetry, C_4v (4mm)  point group:

     e(  1 -  1) =     -4.85970  eV     1   --> A_1  G_1 D_1   
     e(  2 -  2) =      0.53345  eV     1   --> B_2  G_4 D_2'  
     e(  3 -  4) =      2.92772  eV     2   --> E    G_5 D_5   
     e(  5 -  5) =      5.82031  eV     1   --> A_1  G_1 D_1   
     e(  6 -  6) =      7.29903  eV     1   --> B_2  G_4 D_2'  
     e(  7 -  8) =     11.04690  eV     2   --> E    G_5 D_5   

 **************************************************************************

 **************************************************************************

                    xk=(   0.63333,   0.00000,   0.00000  )

     Band symmetry, C_4v (4mm)  point group:

     e(  1 -  1) =     -4.70422  eV     1   --> A_1  G_1 D_1   
     e(  2 -  2) =      0.26177  eV     1   --> B_2  G_4 D_2'  
     e(  3 -  4) =      2.83880  eV     2   --> E    G_5 D_5   
     e(  5 -  5) =      5.75706  eV     1   --> A_1  G_1 D_1   
     e(  6 -  6) =      7.10900  eV     1   --> B_2  G_4 D_2'  
     e(  7 -  8) =     11.32143  eV     2   --> E    G_5 D_5   

 **************************************************************************

 **************************************************************************

                    xk=(   0.66667,   0.00000,   0.00000  )

     Band symmetry, C_4v (4mm)  point group:

     e(  1 -  1) =     -4.54117  eV     1   --> A_1  G_1 D_1   
     e(  2 -  2) =     -0.00794  eV     1   --> B_2  G_4 D_2'  
     e(  3 -  4) =      2.75709  eV     2   --> E    G_5 D_5   
     e(  5 -  5) =      5.70283  eV     1   --> A_1  G_1 D_1   
     e(  6 -  6) =      6.92712  eV     1   --> B_2  G_4 D_2'  
     e(  7 -  8) =     11.59776  eV     2   --> E    G_5 D_5   

 **************************************************************************

 **************************************************************************

                    xk=(   0.70000,   0.00000,   0.00000  )

     Band symmetry, C_4v (4mm)  point group:

     e(  1 -  1) =     -4.37069  eV     1   --> A_1  G_1 D_1   
     e(  2 -  2) =     -0.27542  eV     1   --> B_2  G_4 D_2'  
     e(  3 -  4) =      2.68275  eV     2   --> E    G_5 D_5   
     e(  5 -  5) =      5.65804  eV     1   --> A_1  G_1 D_1   
     e(  6 -  6) =      6.75486  eV     1   --> B_2  G_4 D_2'  
     e(  7 -  8) =     11.87545  eV     2   --> E    G_5 D_5   

 **************************************************************************

 **************************************************************************

                    xk=(   0.73333,   0.00000,   0.00000  )

     Band symmetry, C_4v (4mm)  point group:

     e(  1 -  1) =     -4.19295  eV     1   --> A_1  G_1 D_1   
     e(  2 -  2) =     -0.54039  eV     1   --> B_2  G_4 D_2'  
     e(  3 -  4) =      2.61592  eV     2   --> E    G_5 D_5   
     e(  5 -  5) =      5.62303  eV     1   --> A_1  G_1 D_1   
     e(  6 -  6) =      6.59324  eV     1   --> B_2  G_4 D_2'  
     e(  7 -  8) =     12.15390  eV     2   --> E    G_5 D_5   

 **************************************************************************

 **************************************************************************

                    xk=(   0.76667,   0.00000,   0.00000  )

     Band symmetry, C_4v (4mm)  point group:

     e(  1 -  1) =     -4.00812  eV     1   --> A_1  G_1 D_1   
     e(  2 -  2) =     -0.80253  eV     1   --> B_2  G_4 D_2'  
     e(  3 -  4) =      2.55672  eV     2   --> E    G_5 D_5   
     e(  5 -  5) =      5.59813  eV     1   --> A_1  G_1 D_1   
     e(  6 -  6) =      6.44295  eV     1   --> B_2  G_4 D_2'  
     e(  7 -  8) =     12.43222  eV     2   --> E    G_5 D_5   

 **************************************************************************

 **************************************************************************

                    xk=(   0.80000,   0.00000,   0.00000  )

     Band symmetry, C_4v (4mm)  point group:

     e(  1 -  1) =     -3.81638  eV     1   --> A_1  G_1 D_1   
     e(  2 -  2) =     -1.06156  eV     1   --> B_2  G_4 D_2'  
     e(  3 -  4) =      2.50523  eV     2   --> E    G_5 D_5   
     e(  5 -  5) =      5.58366  eV     1   --> A_1  G_1 D_1   
     e(  6 -  6) =      6.30446  eV     1   --> B_2  G_4 D_2'  
     e(  7 -  8) =     12.70905  eV     2   --> E    G_5 D_5   

 **************************************************************************

 **************************************************************************

                    xk=(   0.83333,   0.00000,   0.00000  )

     Band symmetry, C_4v (4mm)  point group:

     e(  1 -  1) =     -3.61793  eV     1   --> A_1  G_1 D_1   
     e(  2 -  2) =     -1.31717  eV     1   --> B_2  G_4 D_2'  
     e(  3 -  4) =      2.46155  eV     2   --> E    G_5 D_5   
     e(  5 -  5) =      5.57987  eV     1   --> A_1  G_1 D_1   
     e(  6 -  6) =      6.17805  eV     1   --> B_2  G_4 D_2'  
     e(  7 -  8) =     12.98208  eV     2   --> E    G_5 D_5   

 **************************************************************************

 **************************************************************************

                    xk=(   0.86667,   0.00000,   0.00000  )

     Band symmetry, C_4v (4mm)  point group:

     e(  1 -  1) =     -3.41299  eV     1   --> A_1  G_1 D_1   
     e(  2 -  2) =     -1.56903  eV     1   --> B_2  G_4 D_2'  
     e(  3 -  4) =      2.42572  eV     2   --> E    G_5 D_5   
     e(  5 -  5) =      5.58704  eV     1   --> A_1  G_1 D_1   
     e(  6 -  6) =      6.06387  eV     1   --> B_2  G_4 D_2'  
     e(  7 -  8) =     13.24725  eV     2   --> E    G_5 D_5   

 **************************************************************************

 **************************************************************************

                    xk=(   0.90000,   0.00000,   0.00000  )

     Band symmetry, C_4v (4mm)  point group:

     e(  1 -  1) =     -3.20176  eV     1   --> A_1  G_1 D_1   
     e(  2 -  2) =     -1.81684  eV     1   --> B_2  G_4 D_2'  
     e(  3 -  4) =      2.39780  eV     2   --> E    G_5 D_5   
     e(  5 -  5) =      5.60540  eV     1   --> A_1  G_1 D_1   
     e(  6 -  6) =      5.96199  eV     1   --> B_2  G_4 D_2'  
     e(  7 -  8) =     13.49697  eV     2   --> E    G_5 D_5   

 **************************************************************************

 **************************************************************************

                    xk=(   0.93333,   0.00000,   0.00000  )

     Band symmetry, C_4v (4mm)  point group:

     e(  1 -  1) =     -2.98450  eV     1   --> A_1  G_1 D_1   
     e(  2 -  2) =     -2.06029  eV     1   --> B_2  G_4 D_2'  
     e(  3 -  4) =      2.37784  eV     2   --> E    G_5 D_5   
     e(  5 -  5) =      5.63519  eV     1   --> A_1  G_1 D_1   
     e(  6 -  6) =      5.87241  eV     1   --> B_2  G_4 D_2'  
     e(  7 -  8) =     13.71643  eV     2   --> E    G_5 D_5   

 **************************************************************************

 **************************************************************************

                    xk=(   0.96667,   0.00000,   0.00000  )

     Band symmetry, C_4v (4mm)  point group:

     e(  1 -  1) =     -2.76146  eV     1   --> A_1  G_1 D_1   
     e(  2 -  2) =     -2.29907  eV     1   --> B_2  G_4 D_2'  
     e(  3 -  4) =      2.36585  eV     2   --> E    G_5 D_5   
     e(  5 -  5) =      5.67661  eV     1   --> A_1  G_1 D_1   
     e(  6 -  6) =      5.79506  eV     1   --> B_2  G_4 D_2'  
     e(  7 -  8) =     13.87758  eV     2   --> E    G_5 D_5   

 **************************************************************************

 **************************************************************************

                    xk=(   1.00000,   0.00000,   0.00000  )

     zone border point and non-symmorphic group 
     symmetry decomposition not available

 **************************************************************************

 **************************************************************************

                    xk=(   1.00000,  -0.02500,   0.02500  )

     zone border point and non-symmorphic group 
     symmetry decomposition not available

 **************************************************************************

 **************************************************************************

                    xk=(   1.00000,  -0.05000,   0.05000  )

     zone border point and non-symmorphic group 
     symmetry decomposition not available

 **************************************************************************

 **************************************************************************

                    xk=(   1.00000,  -0.07500,   0.07500  )

     zone border point and non-symmorphic group 
     symmetry decomposition not available

 **************************************************************************

 **************************************************************************

                    xk=(   1.00000,  -0.10000,   0.10000  )

     zone border point and non-symmorphic group 
     symmetry decomposition not available

 **************************************************************************

 **************************************************************************

                    xk=(   1.00000,  -0.12500,   0.12500  )

     zone border point and non-symmorphic group 
     symmetry decomposition not available

 **************************************************************************

 **************************************************************************

                    xk=(   1.00000,  -0.15000,   0.15000  )

     zone border point and non-symmorphic group 
     symmetry decomposition not available

 **************************************************************************

 **************************************************************************

                    xk=(   1.00000,  -0.17500,   0.17500  )

     zone border point and non-symmorphic group 
     symmetry decomposition not available

 **************************************************************************

 **************************************************************************

                    xk=(   1.00000,  -0.20000,   0.20000  )

     zone border point and non-symmorphic group 
     symmetry decomposition not available

 **************************************************************************

 **************************************************************************

                    xk=(   1.00000,  -0.22500,   0.22500  )

     zone border point and non-symmorphic group 
     symmetry decomposition not available

 **************************************************************************

 **************************************************************************

                    xk=(   1.00000,  -0.25000,   0.25000  )

     zone border point and non-symmorphic group 
     symmetry decomposition not available

 **************************************************************************

 **************************************************************************

                    xk=(   0.96667,  -0.24167,   0.24167  )

     point group C_s (m)    
     there are  2 classes
     the character table:

       E     s    
A'     1.00  1.00
A''    1.00 -1.00

     the symmetry operations in each class and the name of the first element:

     E        1
                                                                 
     s        2
                                                                 

     Band symmetry, C_s (m)     point group:

     e(  1 -  1) =     -2.94377  eV     1   --> A'             
     e(  2 -  2) =     -1.99094  eV     1   --> A'             
     e(  3 -  3) =      1.15448  eV     1   --> A'             
     e(  4 -  4) =      2.72366  eV     1   --> A''            
     e(  5 -  5) =      6.13884  eV     1   --> A'             
     e(  6 -  6) =      8.69184  eV     1   --> A'             
     e(  7 -  7) =     11.84014  eV     1   --> A''            
     e(  8 -  8) =     12.02420  eV     1   --> A'             

 **************************************************************************

 **************************************************************************

                    xk=(   0.93333,  -0.23333,   0.23333  )

     Band symmetry, C_s (m)     point group:

     e(  1 -  1) =     -3.01579  eV     1   --> A'             
     e(  2 -  2) =     -1.92383  eV     1   --> A'             
     e(  3 -  3) =      1.21619  eV     1   --> A'             
     e(  4 -  4) =      2.71100  eV     1   --> A''            
     e(  5 -  5) =      6.12751  eV     1   --> A'             
     e(  6 -  6) =      8.55541  eV     1   --> A'             
     e(  7 -  7) =     11.79683  eV     1   --> A''            
     e(  8 -  8) =     11.81835  eV     1   --> A'             

 **************************************************************************

 **************************************************************************

                    xk=(   0.90000,  -0.22500,   0.22500  )

     Band symmetry, C_s (m)     point group:

     e(  1 -  1) =     -3.14092  eV     1   --> A'             
     e(  2 -  2) =     -1.80179  eV     1   --> A'             
     e(  3 -  3) =      1.29795  eV     1   --> A'             
     e(  4 -  4) =      2.70654  eV     1   --> A''            
     e(  5 -  5) =      6.12680  eV     1   --> A'             
     e(  6 -  6) =      8.43253  eV     1   --> A'             
     e(  7 -  7) =     11.61251  eV     1   --> A'             
     e(  8 -  8) =     11.70353  eV     1   --> A''            

 **************************************************************************

 **************************************************************************

                    xk=(   0.86667,  -0.21667,   0.21667  )

     Band symmetry, C_s (m)     point group:

     e(  1 -  1) =     -3.29729  eV     1   --> A'             
     e(  2 -  2) =     -1.64415  eV     1   --> A'             
     e(  3 -  3) =      1.39699  eV     1   --> A'             
     e(  4 -  4) =      2.71040  eV     1   --> A''            
     e(  5 -  5) =      6.13627  eV     1   --> A'             
     e(  6 -  6) =      8.32396  eV     1   --> A'             
     e(  7 -  7) =     11.40848  eV     1   --> A'             
     e(  8 -  8) =     11.58446  eV     1   --> A''            

 **************************************************************************

 **************************************************************************

                    xk=(   0.83333,  -0.20833,   0.20833  )

     Band symmetry, C_s (m)     point group:

     e(  1 -  1) =     -3.47021  eV     1   --> A'             
     e(  2 -  2) =     -1.46350  eV     1   --> A'             
     e(  3 -  3) =      1.51083  eV     1   --> A'             
     e(  4 -  4) =      2.72266  eV     1   --> A''            
     e(  5 -  5) =      6.15526  eV     1   --> A'             
     e(  6 -  6) =      8.23063  eV     1   --> A'             
     e(  7 -  7) =     11.20683  eV     1   --> A'             
     e(  8 -  8) =     11.45260  eV     1   --> A''            

 **************************************************************************

 **************************************************************************

                    xk=(   0.80000,  -0.20000,   0.20000  )

     Band symmetry, C_s (m)     point group:

     e(  1 -  1) =     -3.65115  eV     1   --> A'             
     e(  2 -  2) =     -1.26666  eV     1   --> A'             
     e(  3 -  3) =      1.63733  eV     1   --> A'             
     e(  4 -  4) =      2.74340  eV     1   --> A''            
     e(  5 -  5) =      6.18284  eV     1   --> A'             
     e(  6 -  6) =      8.15357  eV     1   --> A'             
     e(  7 -  7) =     11.00789  eV     1   --> A'             
     e(  8 -  8) =     11.31431  eV     1   --> A''            

 **************************************************************************

 **************************************************************************

                    xk=(   0.76667,  -0.19167,   0.19167  )

     Band symmetry, C_s (m)     point group:

     e(  1 -  1) =     -3.83501  eV     1   --> A'             
     e(  2 -  2) =     -1.05728  eV     1   --> A'             
     e(  3 -  3) =      1.77459  eV     1   --> A'             
     e(  4 -  4) =      2.77263  eV     1   --> A''            
     e(  5 -  5) =      6.21780  eV     1   --> A'             
     e(  6 -  6) =      8.09393  eV     1   --> A'             
     e(  7 -  7) =     10.81200  eV     1   --> A'             
     e(  8 -  8) =     11.17256  eV     1   --> A''            

 **************************************************************************

 **************************************************************************

                    xk=(   0.73333,  -0.18333,   0.18333  )

     Band symmetry, C_s (m)     point group:

     e(  1 -  1) =     -4.01858  eV     1   --> A'             
     e(  2 -  2) =     -0.83745  eV     1   --> A'             
     e(  3 -  3) =      1.92094  eV     1   --> A'             
     e(  4 -  4) =      2.81037  eV     1   --> A''            
     e(  5 -  5) =      6.25869  eV     1   --> A'             
     e(  6 -  6) =      8.05293  eV     1   --> A'             
     e(  7 -  7) =     10.61951  eV     1   --> A'             
     e(  8 -  8) =     11.02851  eV     1   --> A''            

 **************************************************************************

 **************************************************************************

                    xk=(   0.70000,  -0.17500,   0.17500  )

     Band symmetry, C_s (m)     point group:

     e(  1 -  1) =     -4.19969  eV     1   --> A'             
     e(  2 -  2) =     -0.60841  eV     1   --> A'             
     e(  3 -  3) =      2.07486  eV     1   --> A'             
     e(  4 -  4) =      2.85660  eV     1   --> A''            
     e(  5 -  5) =      6.30388  eV     1   --> A'             
     e(  6 -  6) =      8.03164  eV     1   --> A'             
     e(  7 -  7) =     10.43095  eV     1   --> A'             
     e(  8 -  8) =     10.88227  eV     1   --> A''            

 **************************************************************************

 **************************************************************************

                    xk=(   0.66667,  -0.16667,   0.16667  )

     Band symmetry, C_s (m)     point group:

     e(  1 -  1) =     -4.37680  eV     1   --> A'             
     e(  2 -  2) =     -0.37097  eV     1   --> A'             
     e(  3 -  3) =      2.23497  eV     1   --> A'             
     e(  4 -  4) =      2.91127  eV     1   --> A''            
     e(  5 -  5) =      6.35166  eV     1   --> A'             
     e(  6 -  6) =      8.03079  eV     1   --> A'             
     e(  7 -  7) =     10.24709  eV     1   --> A'             
     e(  8 -  8) =     10.73334  eV     1   --> A''            

 **************************************************************************

 **************************************************************************

                    xk=(   0.63333,  -0.15833,   0.15833  )

     Band symmetry, C_s (m)     point group:

     e(  1 -  1) =     -4.54876  eV     1   --> A'             
     e(  2 -  2) =     -0.12569  eV     1   --> A'             
     e(  3 -  3) =      2.40001  eV     1   --> A'             
     e(  4 -  4) =      2.97430  eV     1   --> A''            
     e(  5 -  5) =      6.40050  eV     1   --> A'             
     e(  6 -  6) =      8.05030  eV     1   --> A'             
     e(  7 -  7) =     10.06913  eV     1   --> A'             
     e(  8 -  8) =     10.58080  eV     1   --> A''            

 **************************************************************************

 **************************************************************************

                    xk=(   0.60000,  -0.15000,   0.15000  )

     Band symmetry, C_s (m)     point group:

     e(  1 -  1) =     -4.71469  eV     1   --> A'             
     e(  2 -  2) =      0.12704  eV     1   --> A'             
     e(  3 -  3) =      2.56880  eV     1   --> A'             
     e(  4 -  4) =      3.04558  eV     1   --> A''            
     e(  5 -  5) =      6.44925  eV     1   --> A'             
     e(  6 -  6) =      8.08868  eV     1   --> A'             
     e(  7 -  7) =      9.89893  eV     1   --> A'             
     e(  8 -  8) =     10.42351  eV     1   --> A''            

 **************************************************************************

 **************************************************************************

                    xk=(   0.56667,  -0.14167,   0.14167  )

     Band symmetry, C_s (m)     point group:

     e(  1 -  1) =     -4.87390  eV     1   --> A'             
     e(  2 -  2) =      0.38688  eV     1   --> A'             
     e(  3 -  3) =      2.74022  eV     1   --> A'             
     e(  4 -  4) =      3.12498  eV     1   --> A''            
     e(  5 -  5) =      6.49729  eV     1   --> A'             
     e(  6 -  6) =      8.14228  eV     1   --> A'             
     e(  7 -  7) =      9.73952  eV     1   --> A'             
     e(  8 -  8) =     10.26025  eV     1   --> A''            

 **************************************************************************

 **************************************************************************

                    xk=(   0.53333,  -0.13333,   0.13333  )

     Band symmetry, C_s (m)     point group:

     e(  1 -  1) =     -5.02584  eV     1   --> A'             
     e(  2 -  2) =      0.65353  eV     1   --> A'             
     e(  3 -  3) =      2.91323  eV     1   --> A'             
     e(  4 -  4) =      3.21230  eV     1   --> A''            
     e(  5 -  5) =      6.54469  eV     1   --> A'             
     e(  6 -  6) =      8.20414  eV     1   --> A'             
     e(  7 -  7) =      9.59579  eV     1   --> A'             
     e(  8 -  8) =     10.08991  eV     1   --> A''            

 **************************************************************************

 **************************************************************************

                    xk=(   0.50000,  -0.12500,   0.12500  )

     Band symmetry, C_s (m)     point group:

     e(  1 -  1) =     -5.17007  eV     1   --> A'             
     e(  2 -  2) =      0.92671  eV     1   --> A'             
     e(  3 -  3) =      3.08681  eV     1   --> A'             
     e(  4 -  4) =      3.30731  eV     1   --> A''            
     e(  5 -  5) =      6.59200  eV     1   --> A'             
     e(  6 -  6) =      8.26281  eV     1   --> A'             
     e(  7 -  7) =      9.47544  eV     1   --> A'             
     e(  8 -  8) =      9.91167  eV     1   --> A''            

 **************************************************************************

 **************************************************************************

                    xk=(   0.46667,  -0.11667,   0.11667  )

     Band symmetry, C_s (m)     point group:

     e(  1 -  1) =     -5.30620  eV     1   --> A'             
     e(  2 -  2) =      1.20613  eV     1   --> A'             
     e(  3 -  3) =      3.25998  eV     1   --> A'             
     e(  4 -  4) =      3.40969  eV     1   --> A''            
     e(  5 -  5) =      6.64012  eV     1   --> A'             
     e(  6 -  6) =      8.30191  eV     1   --> A'             
     e(  7 -  7) =      9.38867  eV     1   --> A'             
     e(  8 -  8) =      9.72515  eV     1   --> A''            

 **************************************************************************

 **************************************************************************

                    xk=(   0.43333,  -0.10833,   0.10833  )

     Band symmetry, C_s (m)     point group:

     e(  1 -  1) =     -5.43394  eV     1   --> A'             
     e(  2 -  2) =      1.49146  eV     1   --> A'             
     e(  3 -  3) =      3.43176  eV     1   --> A'             
     e(  4 -  4) =      3.51908  eV     1   --> A''            
     e(  5 -  5) =      6.69009  eV     1   --> A'             
     e(  6 -  6) =      8.30424  eV     1   --> A'             
     e(  7 -  7) =      9.34289  eV     1   --> A'             
     e(  8 -  8) =      9.53053  eV     1   --> A''            

 **************************************************************************

 **************************************************************************

                    xk=(   0.40000,  -0.10000,   0.10000  )

     Band symmetry, C_s (m)     point group:

     e(  1 -  1) =     -5.55301  eV     1   --> A'             
     e(  2 -  2) =      1.78230  eV     1   --> A'             
     e(  3 -  3) =      3.60115  eV     1   --> A'             
     e(  4 -  4) =      3.63498  eV     1   --> A''            
     e(  5 -  5) =      6.74279  eV     1   --> A'             
     e(  6 -  6) =      8.26188  eV     1   --> A'             
     e(  7 -  7) =      9.32861  eV     1   --> A''            
     e(  8 -  8) =      9.33033  eV     1   --> A'             

 **************************************************************************

 **************************************************************************

                    xk=(   0.36667,  -0.09167,   0.09167  )

     Band symmetry, C_s (m)     point group:

     e(  1 -  1) =     -5.66321  eV     1   --> A'             
     e(  2 -  2) =      2.07818  eV     1   --> A'             
     e(  3 -  3) =      3.75677  eV     1   --> A''            
     e(  4 -  4) =      3.76711  eV     1   --> A'             
     e(  5 -  5) =      6.79891  eV     1   --> A'             
     e(  6 -  6) =      8.18125  eV     1   --> A'             
     e(  7 -  7) =      9.12083  eV     1   --> A''            
     e(  8 -  8) =      9.32046  eV     1   --> A'             

 **************************************************************************

 **************************************************************************

                    xk=(   0.33333,  -0.08333,   0.08333  )

     Band symmetry, C_s (m)     point group:

     e(  1 -  1) =     -5.76434  eV     1   --> A'             
     e(  2 -  2) =      2.37848  eV     1   --> A'             
     e(  3 -  3) =      3.88365  eV     1   --> A''            
     e(  4 -  4) =      3.92855  eV     1   --> A'             
     e(  5 -  5) =      6.85873  eV     1   --> A'             
     e(  6 -  6) =      8.07544  eV     1   --> A'             
     e(  7 -  7) =      8.90914  eV     1   --> A''            
     e(  8 -  8) =      9.26976  eV     1   --> A'             

 **************************************************************************

 **************************************************************************

                    xk=(   0.30000,  -0.07500,   0.07500  )

     Band symmetry, C_s (m)     point group:

     e(  1 -  1) =     -5.85624  eV     1   --> A'             
     e(  2 -  2) =      2.68240  eV     1   --> A'             
     e(  3 -  3) =      4.01459  eV     1   --> A''            
     e(  4 -  4) =      4.08424  eV     1   --> A'             
     e(  5 -  5) =      6.92211  eV     1   --> A'             
     e(  6 -  6) =      7.95590  eV     1   --> A'             
     e(  7 -  7) =      8.69598  eV     1   --> A''            
     e(  8 -  8) =      9.14546  eV     1   --> A'             

 **************************************************************************

 **************************************************************************

                    xk=(   0.26667,  -0.06667,   0.06667  )

     Band symmetry, C_s (m)     point group:

     e(  1 -  1) =     -5.93880  eV     1   --> A'             
     e(  2 -  2) =      2.98883  eV     1   --> A'             
     e(  3 -  3) =      4.14821  eV     1   --> A''            
     e(  4 -  4) =      4.23282  eV     1   --> A'             
     e(  5 -  5) =      6.98840  eV     1   --> A'             
     e(  6 -  6) =      7.83041  eV     1   --> A'             
     e(  7 -  7) =      8.48423  eV     1   --> A''            
     e(  8 -  8) =      8.94592  eV     1   --> A'             

 **************************************************************************

 **************************************************************************

                    xk=(   0.23333,  -0.05833,   0.05833  )

     Band symmetry, C_s (m)     point group:

     e(  1 -  1) =     -6.01188  eV     1   --> A'             
     e(  2 -  2) =      3.29623  eV     1   --> A'             
     e(  3 -  3) =      4.28267  eV     1   --> A''            
     e(  4 -  4) =      4.37273  eV     1   --> A'             
     e(  5 -  5) =      7.05635  eV     1   --> A'             
     e(  6 -  6) =      7.70386  eV     1   --> A'             
     e(  7 -  7) =      8.27718  eV     1   --> A''            
     e(  8 -  8) =      8.69328  eV     1   --> A'             

 **************************************************************************

 **************************************************************************

                    xk=(   0.20000,  -0.05000,   0.05000  )

     Band symmetry, C_s (m)     point group:

     e(  1 -  1) =     -6.07539  eV     1   --> A'             
     e(  2 -  2) =      3.60227  eV     1   --> A'             
     e(  3 -  3) =      4.41553  eV     1   --> A''            
     e(  4 -  4) =      4.50215  eV     1   --> A'             
     e(  5 -  5) =      7.12405  eV     1   --> A'             
     e(  6 -  6) =      7.57900  eV     1   --> A'             
     e(  7 -  7) =      8.07863  eV     1   --> A''            
     e(  8 -  8) =      8.41348  eV     1   --> A'             

 **************************************************************************

 **************************************************************************

                    xk=(   0.16667,  -0.04167,   0.04167  )

     Band symmetry, C_s (m)     point group:

     e(  1 -  1) =     -6.12926  eV     1   --> A'             
     e(  2 -  2) =      3.90337  eV     1   --> A'             
     e(  3 -  3) =      4.54348  eV     1   --> A''            
     e(  4 -  4) =      4.61893  eV     1   --> A'             
     e(  5 -  5) =      7.18865  eV     1   --> A'             
     e(  6 -  6) =      7.45663  eV     1   --> A'             
     e(  7 -  7) =      7.89309  eV     1   --> A''            
     e(  8 -  8) =      8.12887  eV     1   --> A'             

 **************************************************************************

 **************************************************************************

                    xk=(   0.13333,  -0.03333,   0.03333  )

     Band symmetry, C_s (m)     point group:

     e(  1 -  1) =     -6.17342  eV     1   --> A'             
     e(  2 -  2) =      4.19366  eV     1   --> A'             
     e(  3 -  3) =      4.66211  eV     1   --> A''            
     e(  4 -  4) =      4.72054  eV     1   --> A'             
     e(  5 -  5) =      7.24293  eV     1   --> A'             
     e(  6 -  6) =      7.33754  eV     1   --> A'             
     e(  7 -  7) =      7.72599  eV     1   --> A''            
     e(  8 -  8) =      7.86162  eV     1   --> A'             

 **************************************************************************

 **************************************************************************

                    xk=(   0.10000,  -0.02500,   0.02500  )

     Band symmetry, C_s (m)     point group:

     e(  1 -  1) =     -6.20782  eV     1   --> A'             
     e(  2 -  2) =      4.46311  eV     1   --> A'             
     e(  3 -  3) =      4.76576  eV     1   --> A''            
     e(  4 -  4) =      4.80417  eV     1   --> A'             
     e(  5 -  5) =      7.18600  eV     1   --> A'             
     e(  6 -  6) =      7.31085  eV     1   --> A'             
     e(  7 -  7) =      7.58381  eV     1   --> A''            
     e(  8 -  8) =      7.63922  eV     1   --> A'             

 **************************************************************************

 **************************************************************************

                    xk=(   0.06667,  -0.01667,   0.01667  )

     Band symmetry, C_s (m)     point group:

     e(  1 -  1) =     -6.23241  eV     1   --> A'             
     e(  2 -  2) =      4.69420  eV     1   --> A'             
     e(  3 -  3) =      4.84762  eV     1   --> A''            
     e(  4 -  4) =      4.86683  eV     1   --> A'             
     e(  5 -  5) =      7.04308  eV     1   --> A'             
     e(  6 -  6) =      7.34693  eV     1   --> A'             
     e(  7 -  7) =      7.47398  eV     1   --> A''            
     e(  8 -  8) =      7.48692  eV     1   --> A'             

 **************************************************************************

 **************************************************************************

                    xk=(   0.03333,  -0.00833,   0.00833  )

     Band symmetry, C_s (m)     point group:

     e(  1 -  1) =     -6.24718  eV     1   --> A'             
     e(  2 -  2) =      4.85814  eV     1   --> A'             
     e(  3 -  3) =      4.90060  eV     1   --> A''            
     e(  4 -  4) =      4.90577  eV     1   --> A'             
     e(  5 -  5) =      6.91878  eV     1   --> A'             
     e(  6 -  6) =      7.37147  eV     1   --> A'             
     e(  7 -  7) =      7.40405  eV     1   --> A''            
     e(  8 -  8) =      7.40518  eV     1   --> A'             

 **************************************************************************

 **************************************************************************

                    xk=(   0.00000,   0.00000,   0.00000  )

     point group O_h (m-3m) 
     there are 10 classes
     the character table:

       E     8C3   3C2   6C4   6C2'  i     8S6   3s_h  6S4   6s_d 
A_1g   1.00  1.00  1.00  1.00  1.00  1.00  1.00  1.00  1.00  1.00
A_2g   1.00  1.00  1.00 -1.00 -1.00  1.00  1.00  1.00 -1.00 -1.00
E_g    2.00 -1.00  2.00  0.00  0.00  2.00 -1.00  2.00  0.00  0.00
T_1g   3.00  0.00 -1.00  1.00 -1.00  3.00  0.00 -1.00  1.00 -1.00
T_2g   3.00  0.00 -1.00 -1.00  1.00  3.00  0.00 -1.00 -1.00  1.00
A_1u   1.00  1.00  1.00  1.00  1.00 -1.00 -1.00 -1.00 -1.00 -1.00
A_2u   1.00  1.00  1.00 -1.00 -1.00 -1.00 -1.00 -1.00  1.00  1.00
E_u    2.00 -1.00  2.00  0.00  0.00 -2.00  1.00 -2.00  0.00  0.00
T_1u   3.00  0.00 -1.00  1.00 -1.00 -3.00  0.00  1.00 -1.00  1.00
T_2u   3.00  0.00 -1.00 -1.00  1.00 -3.00  0.00  1.00  1.00 -1.00

     the symmetry operations in each class and the name of the first element:

     E        1
                                                                 
     8C3     17   19   20   18   24   21   22   23
                                                                 
     3C2      2    4    3
                                                                 
     6C4      7    8   15   16   12   11
                                                                 
     6C2'     5    6   14   13   10    9
                                                                 
     i       25
                                                                 
     8S6     41   43   44   42   48   45   46   47
                                                                 
     3s_h    26   28   27
                                                                 
     6S4     31   32   39   40   36   35
                                                                 
     6s_d    29   30   38   37   34   33
                                                                 

     Band symmetry, O_h (m-3m)  point group:

     e(  1 -  1) =     -6.25211  eV     1   --> A_1g G_1   G_1+
     e(  2 -  4) =      4.91900  eV     3   --> T_2g G_25' G_5+
     e(  5 -  5) =      6.86865  eV     1   --> A_2u G_2'  G_2-
     e(  6 -  8) =      7.37997  eV     3   --> T_1u G_15  G_4-

 **************************************************************************

     BANDS        :     18.37s CPU     18.51s WALL


   This run was terminated on:  17: 6:13   9Dec2022            

=------------------------------------------------------------------------------=
   JOB DONE.
=------------------------------------------------------------------------------=
