
     Program PWSCF v.7.1 starts on  9Dec2022 at 16:47: 2 
        Git branch: develop
        Last git commit: 9ddde6fa44e0fb1c7debb78532a4b581a6ef82fd
        Last git commit date: Fri Oct 28 07:34:35 2022 +0000
        Last git commit subject: Merge branch 'fix_hubbardocc' into 'develop'

     This program is part of the open-source Quantum ESPRESSO suite
     for quantum simulation of materials; please cite
         "P. Giannozzi et al., J. Phys.:Condens. Matter 21 395502 (2009);
         "P. Giannozzi et al., J. Phys.:Condens. Matter 29 465901 (2017);
         "P. Giannozzi et al., J. Chem. Phys. 152 154105 (2020);
          URL http://www.quantum-espresso.org", 
     in publications or presentations arising from this work. More details at
     http://www.quantum-espresso.org/quote

     Parallel version (MPI), running on     1 processors

     MPI processes distributed on     1 nodes
     0 MiB available memory on the printing compute node when the environment starts

     Waiting for input...
     Reading input from standard input

     Current dimensions of program PWSCF are:
     Max number of different atomic species (ntypx) = 10
     Max number of k-points (npk) =  40000
     Max angular momentum in pseudopotentials (lmaxx) =  4

     Atomic positions and unit cell read from directory:
     ./out/si.save/


     Subspace diagonalization in iterative solution of the eigenvalue problem:
     a serial algorithm will be used


     G-vector sticks info
     --------------------
     sticks:   dense  smooth     PW     G-vecs:    dense   smooth      PW
     Sum        2839     955    283                99965    19339    3071

     Using Slab Decomposition



     bravais-lattice index     =            2
     lattice parameter (alat)  =      10.7000  a.u.
     unit-cell volume          =     306.2607 (a.u.)^3
     number of atoms/cell      =            2
     number of atomic types    =            1
     number of electrons       =         8.00
     number of Kohn-Sham states=            8
     kinetic-energy cutoff     =      60.0000  Ry
     charge density cutoff     =     720.0000  Ry
     Exchange-correlation= PBESOL
                           (   1   4  10   8   0   0   0)

     celldm(1)=  10.700000  celldm(2)=   0.000000  celldm(3)=   0.000000
     celldm(4)=   0.000000  celldm(5)=   0.000000  celldm(6)=   0.000000

     crystal axes: (cart. coord. in units of alat)
               a(1) = (  -0.500000   0.000000   0.500000 )  
               a(2) = (   0.000000   0.500000   0.500000 )  
               a(3) = (  -0.500000   0.500000   0.000000 )  

     reciprocal axes: (cart. coord. in units 2 pi/alat)
               b(1) = ( -1.000000 -1.000000  1.000000 )  
               b(2) = (  1.000000  1.000000  1.000000 )  
               b(3) = ( -1.000000  1.000000 -1.000000 )  


     PseudoPot. # 1 for Si read from file:
     ../pseudo/Si.pbesol-n-rrkjus_psl.1.0.0.UPF
     MD5 check sum: c4212819de858c94c3a1644338846ac9
     Pseudo is Ultrasoft + core correction, Zval =  4.0
     Generated using "atomic" code by A. Dal Corso  v.6.0 svn rev. 13079
     Using radial grid of 1141 points,  6 beta functions with: 
                l(1) =   0
                l(2) =   0
                l(3) =   1
                l(4) =   1
                l(5) =   2
                l(6) =   2
     Q(r) pseudized with 0 coefficients 


     atomic species   valence    mass     pseudopotential
        Si             4.00    28.08550     Si( 1.00)

     48 Sym. Ops., with inversion, found (24 have fractional translation)



   Cartesian axes

     site n.     atom                  positions (alat units)
         1           Si  tau(   1) = (   0.0000000   0.0000000   0.0000000  )
         2           Si  tau(   2) = (   0.2500000   0.2500000   0.2500000  )

     number of k points=    91
                       cart. coord. in units 2pi/alat
        k(    1) = (   0.5000000  -0.5000000   0.5000000), wk =   0.0219780
        k(    2) = (   0.4750000  -0.4750000   0.4750000), wk =   0.0219780
        k(    3) = (   0.4500000  -0.4500000   0.4500000), wk =   0.0219780
        k(    4) = (   0.4250000  -0.4250000   0.4250000), wk =   0.0219780
        k(    5) = (   0.4000000  -0.4000000   0.4000000), wk =   0.0219780
        k(    6) = (   0.3750000  -0.3750000   0.3750000), wk =   0.0219780
        k(    7) = (   0.3500000  -0.3500000   0.3500000), wk =   0.0219780
        k(    8) = (   0.3250000  -0.3250000   0.3250000), wk =   0.0219780
        k(    9) = (   0.3000000  -0.3000000   0.3000000), wk =   0.0219780
        k(   10) = (   0.2750000  -0.2750000   0.2750000), wk =   0.0219780
        k(   11) = (   0.2500000  -0.2500000   0.2500000), wk =   0.0219780
        k(   12) = (   0.2250000  -0.2250000   0.2250000), wk =   0.0219780
        k(   13) = (   0.2000000  -0.2000000   0.2000000), wk =   0.0219780
        k(   14) = (   0.1750000  -0.1750000   0.1750000), wk =   0.0219780
        k(   15) = (   0.1500000  -0.1500000   0.1500000), wk =   0.0219780
        k(   16) = (   0.1250000  -0.1250000   0.1250000), wk =   0.0219780
        k(   17) = (   0.1000000  -0.1000000   0.1000000), wk =   0.0219780
        k(   18) = (   0.0750000  -0.0750000   0.0750000), wk =   0.0219780
        k(   19) = (   0.0500000  -0.0500000   0.0500000), wk =   0.0219780
        k(   20) = (   0.0250000  -0.0250000   0.0250000), wk =   0.0219780
        k(   21) = (   0.0000000   0.0000000   0.0000000), wk =   0.0219780
        k(   22) = (   0.0333333   0.0000000   0.0000000), wk =   0.0219780
        k(   23) = (   0.0666667   0.0000000   0.0000000), wk =   0.0219780
        k(   24) = (   0.1000000   0.0000000   0.0000000), wk =   0.0219780
        k(   25) = (   0.1333333   0.0000000   0.0000000), wk =   0.0219780
        k(   26) = (   0.1666667   0.0000000   0.0000000), wk =   0.0219780
        k(   27) = (   0.2000000   0.0000000   0.0000000), wk =   0.0219780
        k(   28) = (   0.2333333   0.0000000   0.0000000), wk =   0.0219780
        k(   29) = (   0.2666667   0.0000000   0.0000000), wk =   0.0219780
        k(   30) = (   0.3000000   0.0000000   0.0000000), wk =   0.0219780
        k(   31) = (   0.3333333   0.0000000   0.0000000), wk =   0.0219780
        k(   32) = (   0.3666667   0.0000000   0.0000000), wk =   0.0219780
        k(   33) = (   0.4000000   0.0000000   0.0000000), wk =   0.0219780
        k(   34) = (   0.4333333   0.0000000   0.0000000), wk =   0.0219780
        k(   35) = (   0.4666667   0.0000000   0.0000000), wk =   0.0219780
        k(   36) = (   0.5000000   0.0000000   0.0000000), wk =   0.0219780
        k(   37) = (   0.5333333   0.0000000   0.0000000), wk =   0.0219780
        k(   38) = (   0.5666667   0.0000000   0.0000000), wk =   0.0219780
        k(   39) = (   0.6000000   0.0000000   0.0000000), wk =   0.0219780
        k(   40) = (   0.6333333   0.0000000   0.0000000), wk =   0.0219780
        k(   41) = (   0.6666667   0.0000000   0.0000000), wk =   0.0219780
        k(   42) = (   0.7000000   0.0000000   0.0000000), wk =   0.0219780
        k(   43) = (   0.7333333   0.0000000   0.0000000), wk =   0.0219780
        k(   44) = (   0.7666667   0.0000000   0.0000000), wk =   0.0219780
        k(   45) = (   0.8000000   0.0000000   0.0000000), wk =   0.0219780
        k(   46) = (   0.8333333   0.0000000   0.0000000), wk =   0.0219780
        k(   47) = (   0.8666667   0.0000000   0.0000000), wk =   0.0219780
        k(   48) = (   0.9000000   0.0000000   0.0000000), wk =   0.0219780
        k(   49) = (   0.9333333   0.0000000   0.0000000), wk =   0.0219780
        k(   50) = (   0.9666667   0.0000000   0.0000000), wk =   0.0219780
        k(   51) = (   1.0000000   0.0000000   0.0000000), wk =   0.0219780
        k(   52) = (   1.0000000  -0.0250000   0.0250000), wk =   0.0219780
        k(   53) = (   1.0000000  -0.0500000   0.0500000), wk =   0.0219780
        k(   54) = (   1.0000000  -0.0750000   0.0750000), wk =   0.0219780
        k(   55) = (   1.0000000  -0.1000000   0.1000000), wk =   0.0219780
        k(   56) = (   1.0000000  -0.1250000   0.1250000), wk =   0.0219780
        k(   57) = (   1.0000000  -0.1500000   0.1500000), wk =   0.0219780
        k(   58) = (   1.0000000  -0.1750000   0.1750000), wk =   0.0219780
        k(   59) = (   1.0000000  -0.2000000   0.2000000), wk =   0.0219780
        k(   60) = (   1.0000000  -0.2250000   0.2250000), wk =   0.0219780
        k(   61) = (   1.0000000  -0.2500000   0.2500000), wk =   0.0219780
        k(   62) = (   0.9666667  -0.2416667   0.2416667), wk =   0.0219780
        k(   63) = (   0.9333333  -0.2333333   0.2333333), wk =   0.0219780
        k(   64) = (   0.9000000  -0.2250000   0.2250000), wk =   0.0219780
        k(   65) = (   0.8666667  -0.2166667   0.2166667), wk =   0.0219780
        k(   66) = (   0.8333333  -0.2083333   0.2083333), wk =   0.0219780
        k(   67) = (   0.8000000  -0.2000000   0.2000000), wk =   0.0219780
        k(   68) = (   0.7666667  -0.1916667   0.1916667), wk =   0.0219780
        k(   69) = (   0.7333333  -0.1833333   0.1833333), wk =   0.0219780
        k(   70) = (   0.7000000  -0.1750000   0.1750000), wk =   0.0219780
        k(   71) = (   0.6666667  -0.1666667   0.1666667), wk =   0.0219780
        k(   72) = (   0.6333333  -0.1583333   0.1583333), wk =   0.0219780
        k(   73) = (   0.6000000  -0.1500000   0.1500000), wk =   0.0219780
        k(   74) = (   0.5666667  -0.1416667   0.1416667), wk =   0.0219780
        k(   75) = (   0.5333333  -0.1333333   0.1333333), wk =   0.0219780
        k(   76) = (   0.5000000  -0.1250000   0.1250000), wk =   0.0219780
        k(   77) = (   0.4666667  -0.1166667   0.1166667), wk =   0.0219780
        k(   78) = (   0.4333333  -0.1083333   0.1083333), wk =   0.0219780
        k(   79) = (   0.4000000  -0.1000000   0.1000000), wk =   0.0219780
        k(   80) = (   0.3666667  -0.0916667   0.0916667), wk =   0.0219780
        k(   81) = (   0.3333333  -0.0833333   0.0833333), wk =   0.0219780
        k(   82) = (   0.3000000  -0.0750000   0.0750000), wk =   0.0219780
        k(   83) = (   0.2666667  -0.0666667   0.0666667), wk =   0.0219780
        k(   84) = (   0.2333333  -0.0583333   0.0583333), wk =   0.0219780
        k(   85) = (   0.2000000  -0.0500000   0.0500000), wk =   0.0219780
        k(   86) = (   0.1666667  -0.0416667   0.0416667), wk =   0.0219780
        k(   87) = (   0.1333333  -0.0333333   0.0333333), wk =   0.0219780
        k(   88) = (   0.1000000  -0.0250000   0.0250000), wk =   0.0219780
        k(   89) = (   0.0666667  -0.0166667   0.0166667), wk =   0.0219780
        k(   90) = (   0.0333333  -0.0083333   0.0083333), wk =   0.0219780
        k(   91) = (   0.0000000   0.0000000   0.0000000), wk =   0.0219780

     Dense  grid:    99965 G-vectors     FFT dimensions: (  72,  72,  72)

     Smooth grid:    19339 G-vectors     FFT dimensions: (  40,  40,  40)

     Estimated max dynamical RAM per process >     328.33 MB

     The potential is recalculated from file :
     ./out/si.save/charge-density

     Starting wfcs are    8 randomized atomic wfcs

     Band Structure Calculation
     Davidson diagonalization with overlap

     ethr =  1.25E-10,  avg # of iterations = 30.2

     total cpu time spent up to now is       20.1 secs

     End of band structure calculation

          k = 0.5000-0.5000 0.5000 (  2392 PWs)   bands (ev):

    -4.2042  -1.5531   3.8244   3.8244   5.9493   8.2274   8.2274  12.2594

          k = 0.4750-0.4750 0.4750 (  2398 PWs)   bands (ev):

    -4.2334  -1.5098   3.8286   3.8286   5.9544   8.2311   8.2311  12.2647

          k = 0.4500-0.4500 0.4500 (  2401 PWs)   bands (ev):

    -4.3154  -1.3854   3.8412   3.8412   5.9697   8.2417   8.2417  12.2794

          k = 0.4250-0.4250 0.4250 (  2407 PWs)   bands (ev):

    -4.4374  -1.1929   3.8622   3.8622   5.9951   8.2581   8.2581  12.2987

          k = 0.4000-0.4000 0.4000 (  2425 PWs)   bands (ev):

    -4.5849  -0.9468   3.8915   3.8915   6.0306   8.2783   8.2783  12.3109

          k = 0.3750-0.3750 0.3750 (  2421 PWs)   bands (ev):

    -4.7462  -0.6592   3.9291   3.9291   6.0758   8.2997   8.2997  12.2885

          k = 0.3500-0.3500 0.3500 (  2418 PWs)   bands (ev):

    -4.9127  -0.3390   3.9747   3.9747   6.1307   8.3184   8.3184  12.1783

          k = 0.3250-0.3250 0.3250 (  2424 PWs)   bands (ev):

    -5.0783   0.0075   4.0283   4.0283   6.1947   8.3297   8.3297  11.9382

          k = 0.3000-0.3000 0.3000 (  2421 PWs)   bands (ev):

    -5.2390   0.3756   4.0894   4.0894   6.2674   8.3283   8.3283  11.5982

          k = 0.2750-0.2750 0.2750 (  2412 PWs)   bands (ev):

    -5.3920   0.7619   4.1577   4.1577   6.3480   8.3089   8.3089  11.2083

          k = 0.2500-0.2500 0.2500 (  2418 PWs)   bands (ev):

    -5.5353   1.1637   4.2325   4.2325   6.4357   8.2671   8.2671  10.7955

          k = 0.2250-0.2250 0.2250 (  2412 PWs)   bands (ev):

    -5.6675   1.5784   4.3130   4.3130   6.5291   8.2008   8.2008  10.3715

          k = 0.2000-0.2000 0.2000 (  2409 PWs)   bands (ev):

    -5.7876   2.0037   4.3980   4.3980   6.6265   8.1113   8.1113   9.9416

          k = 0.1750-0.1750 0.1750 (  2415 PWs)   bands (ev):

    -5.8948   2.4370   4.4859   4.4859   6.7255   8.0029   8.0029   9.5087

          k = 0.1500-0.1500 0.1500 (  2397 PWs)   bands (ev):

    -5.9886   2.8749   4.5747   4.5747   6.8228   7.8824   7.8824   9.0758

          k = 0.1250-0.1250 0.1250 (  2400 PWs)   bands (ev):

    -6.0686   3.3130   4.6616   4.6616   6.9140   7.7582   7.7582   8.6474

          k = 0.1000-0.1000 0.1000 (  2397 PWs)   bands (ev):

    -6.1344   3.7445   4.7428   4.7428   6.9918   7.6392   7.6392   8.2321

          k = 0.0750-0.0750 0.0750 (  2415 PWs)   bands (ev):

    -6.1858   4.1572   4.8140   4.8140   7.0426   7.5341   7.5341   7.8501

          k = 0.0500-0.0500 0.0500 (  2418 PWs)   bands (ev):

    -6.2226   4.5278   4.8702   4.8702   7.0341   7.4514   7.4514   7.5515

          k = 0.0250-0.0250 0.0250 (  2421 PWs)   bands (ev):

    -6.2447   4.8083   4.9064   4.9064   6.9365   7.3983   7.3983   7.4089

          k = 0.0000 0.0000 0.0000 (  2421 PWs)   bands (ev):

    -6.2521   4.9190   4.9190   4.9190   6.8686   7.3800   7.3800   7.3800

          k = 0.0333 0.0000 0.0000 (  2421 PWs)   bands (ev):

    -6.2477   4.8726   4.9008   4.9008   6.9143   7.3685   7.4035   7.4035

          k = 0.0667 0.0000 0.0000 (  2421 PWs)   bands (ev):

    -6.2346   4.7450   4.8485   4.8485   7.0395   7.3348   7.4720   7.4720

          k = 0.1000 0.0000 0.0000 (  2421 PWs)   bands (ev):

    -6.2127   4.5596   4.7672   4.7672   7.2195   7.2807   7.5801   7.5801

          k = 0.1333 0.0000 0.0000 (  2417 PWs)   bands (ev):

    -6.1821   4.3378   4.6637   4.6637   7.2089   7.4309   7.7211   7.7211

          k = 0.1667 0.0000 0.0000 (  2389 PWs)   bands (ev):

    -6.1428   4.0936   4.5444   4.5444   7.1227   7.6561   7.8885   7.8885

          k = 0.2000 0.0000 0.0000 (  2397 PWs)   bands (ev):

    -6.0948   3.8358   4.4149   4.4149   7.0252   7.8808   8.0766   8.0766

          k = 0.2333 0.0000 0.0000 (  2397 PWs)   bands (ev):

    -6.0382   3.5695   4.2793   4.2793   6.9197   8.0914   8.2812   8.2812

          k = 0.2667 0.0000 0.0000 (  2409 PWs)   bands (ev):

    -5.9729   3.2979   4.1408   4.1408   6.8091   8.2720   8.4990   8.4990

          k = 0.3000 0.0000 0.0000 (  2397 PWs)   bands (ev):

    -5.8990   3.0231   4.0019   4.0019   6.6958   8.4042   8.7273   8.7273

          k = 0.3333 0.0000 0.0000 (  2405 PWs)   bands (ev):

    -5.8167   2.7464   3.8644   3.8644   6.5820   8.4700   8.9643   8.9643

          k = 0.3667 0.0000 0.0000 (  2421 PWs)   bands (ev):

    -5.7259   2.4686   3.7296   3.7296   6.4695   8.4601   9.2086   9.2086

          k = 0.4000 0.0000 0.0000 (  2421 PWs)   bands (ev):

    -5.6267   2.1905   3.5986   3.5986   6.3598   8.3801   9.4589   9.4589

          k = 0.4333 0.0000 0.0000 (  2421 PWs)   bands (ev):

    -5.5191   1.9124   3.4722   3.4722   6.2542   8.2467   9.7143   9.7143

          k = 0.4667 0.0000 0.0000 (  2417 PWs)   bands (ev):

    -5.4033   1.6347   3.3510   3.3510   6.1538   8.0786   9.9741   9.9741

          k = 0.5000 0.0000 0.0000 (  2413 PWs)   bands (ev):

    -5.2794   1.3577   3.2356   3.2356   6.0595   7.8908  10.2378  10.2378

          k = 0.5333 0.0000 0.0000 (  2421 PWs)   bands (ev):

    -5.1474   1.0817   3.1264   3.1264   5.9721   7.6939  10.5047  10.5047

          k = 0.5667 0.0000 0.0000 (  2421 PWs)   bands (ev):

    -5.0075   0.8068   3.0237   3.0237   5.8922   7.4950  10.7745  10.7745

          k = 0.6000 0.0000 0.0000 (  2409 PWs)   bands (ev):

    -4.8597   0.5334   2.9277   2.9277   5.8203   7.2990  11.0469  11.0469

          k = 0.6333 0.0000 0.0000 (  2397 PWs)   bands (ev):

    -4.7042   0.2618   2.8388   2.8388   5.7571   7.1090  11.3214  11.3214

          k = 0.6667 0.0000 0.0000 (  2397 PWs)   bands (ev):

    -4.5412  -0.0079   2.7571   2.7571   5.7028   6.9271  11.5978  11.5978

          k = 0.7000 0.0000 0.0000 (  2397 PWs)   bands (ev):

    -4.3707  -0.2754   2.6827   2.6827   5.6580   6.7549  11.8755  11.8755

          k = 0.7333 0.0000 0.0000 (  2397 PWs)   bands (ev):

    -4.1930  -0.5404   2.6159   2.6159   5.6230   6.5932  12.1539  12.1539

          k = 0.7667 0.0000 0.0000 (  2405 PWs)   bands (ev):

    -4.0081  -0.8025   2.5567   2.5567   5.5981   6.4430  12.4322  12.4322

          k = 0.8000 0.0000 0.0000 (  2401 PWs)   bands (ev):

    -3.8164  -1.0616   2.5052   2.5052   5.5837   6.3045  12.7091  12.7091

          k = 0.8333 0.0000 0.0000 (  2394 PWs)   bands (ev):

    -3.6179  -1.3172   2.4615   2.4615   5.5799   6.1780  12.9821  12.9821

          k = 0.8667 0.0000 0.0000 (  2410 PWs)   bands (ev):

    -3.4130  -1.5690   2.4257   2.4257   5.5870   6.0639  13.2473  13.2473

          k = 0.9000 0.0000 0.0000 (  2406 PWs)   bands (ev):

    -3.2018  -1.8168   2.3978   2.3978   5.6054   5.9620  13.4970  13.4970

          k = 0.9333 0.0000 0.0000 (  2414 PWs)   bands (ev):

    -2.9845  -2.0603   2.3778   2.3778   5.6352   5.8724  13.7164  13.7164

          k = 0.9667 0.0000 0.0000 (  2426 PWs)   bands (ev):

    -2.7615  -2.2991   2.3658   2.3658   5.6766   5.7951  13.8776  13.8776

          k = 1.0000 0.0000 0.0000 (  2450 PWs)   bands (ev):

    -2.5329  -2.5329   2.3619   2.3619   5.7298   5.7298  13.9393  13.9393

          k = 1.0000-0.0250 0.0250 (  2426 PWs)   bands (ev):

    -2.5356  -2.5274   2.3302   2.3658   5.7343   5.7789  13.8984  13.9068

          k = 1.0000-0.0500 0.0500 (  2410 PWs)   bands (ev):

    -2.5440  -2.5111   2.2414   2.3776   5.7477   5.9203  13.7825  13.8145

          k = 1.0000-0.0750 0.0750 (  2410 PWs)   bands (ev):

    -2.5587  -2.4838   2.1098   2.3973   5.7699   6.1400  13.6078  13.6741

          k = 1.0000-0.1000 0.1000 (  2412 PWs)   bands (ev):

    -2.5805  -2.4456   1.9526   2.4247   5.8009   6.4220  13.3917  13.4989

          k = 1.0000-0.1250 0.1250 (  2412 PWs)   bands (ev):

    -2.6110  -2.3965   1.7847   2.4597   5.8406   6.7523  13.1487  13.3003

          k = 1.0000-0.1500 0.1500 (  2408 PWs)   bands (ev):

    -2.6514  -2.3366   1.6182   2.5023   5.8887   7.1202  12.8891  13.0867

          k = 1.0000-0.1750 0.1750 (  2402 PWs)   bands (ev):

    -2.7035  -2.2657   1.4623   2.5523   5.9451   7.5179  12.6202  12.8643

          k = 1.0000-0.2000 0.2000 (  2406 PWs)   bands (ev):

    -2.7687  -2.1841   1.3236   2.6095   6.0095   7.9399  12.3469  12.6376

          k = 1.0000-0.2250 0.2250 (  2402 PWs)   bands (ev):

    -2.8481  -2.0916   1.2070   2.6736   6.0816   8.3821  12.0727  12.4097

          k = 1.0000-0.2500 0.2500 (  2382 PWs)   bands (ev):

    -2.9424  -1.9884   1.1159   2.7444   6.1610   8.8411  11.8001  12.1832

          k = 0.9667-0.2417 0.2417 (  2400 PWs)   bands (ev):

    -2.9438  -1.9909   1.1545   2.7237   6.1388   8.6918  11.8401  12.0242

          k = 0.9333-0.2333 0.2333 (  2399 PWs)   bands (ev):

    -3.0158  -1.9238   1.2162   2.7110   6.1275   8.5554  11.7968  11.8183

          k = 0.9000-0.2250 0.2250 (  2396 PWs)   bands (ev):

    -3.1409  -1.8018   1.2980   2.7065   6.1268   8.4325  11.6125  11.7035

          k = 0.8667-0.2167 0.2167 (  2398 PWs)   bands (ev):

    -3.2973  -1.6442   1.3970   2.7104   6.1363   8.3240  11.4085  11.5845

          k = 0.8333-0.2083 0.2083 (  2404 PWs)   bands (ev):

    -3.4702  -1.4635   1.5108   2.7227   6.1553   8.2306  11.2068  11.4526

          k = 0.8000-0.2000 0.2000 (  2398 PWs)   bands (ev):

    -3.6511  -1.2667   1.6373   2.7434   6.1828   8.1536  11.0079  11.3143

          k = 0.7667-0.1917 0.1917 (  2400 PWs)   bands (ev):

    -3.8350  -1.0573   1.7746   2.7726   6.2178   8.0939  10.8120  11.1726

          k = 0.7333-0.1833 0.1833 (  2396 PWs)   bands (ev):

    -4.0186  -0.8374   1.9209   2.8104   6.2587   8.0529  10.6195  11.0285

          k = 0.7000-0.1750 0.1750 (  2399 PWs)   bands (ev):

    -4.1997  -0.6084   2.0749   2.8566   6.3039   8.0316  10.4309  10.8823

          k = 0.6667-0.1667 0.1667 (  2395 PWs)   bands (ev):

    -4.3768  -0.3710   2.2350   2.9113   6.3517   8.0308  10.2471  10.7333

          k = 0.6333-0.1583 0.1583 (  2403 PWs)   bands (ev):

    -4.5488  -0.1257   2.4000   2.9743   6.4005   8.0503  10.0691  10.5808

          k = 0.6000-0.1500 0.1500 (  2401 PWs)   bands (ev):

    -4.7147   0.1270   2.5688   3.0456   6.4492   8.0887   9.8989  10.4235

          k = 0.5667-0.1417 0.1417 (  2404 PWs)   bands (ev):

    -4.8739   0.3869   2.7402   3.1250   6.4973   8.1423   9.7395  10.2602

          k = 0.5333-0.1333 0.1333 (  2406 PWs)   bands (ev):

    -5.0258   0.6535   2.9132   3.2123   6.5447   8.2041   9.5958  10.0899

          k = 0.5000-0.1250 0.1250 (  2398 PWs)   bands (ev):

    -5.1701   0.9267   3.0868   3.3073   6.5920   8.2628   9.4754   9.9117

          k = 0.4667-0.1167 0.1167 (  2402 PWs)   bands (ev):

    -5.3062   1.2061   3.2600   3.4097   6.6401   8.3019   9.3887   9.7251

          k = 0.4333-0.1083 0.1083 (  2405 PWs)   bands (ev):

    -5.4339   1.4915   3.4318   3.5191   6.6901   8.3042   9.3429   9.5305

          k = 0.4000-0.1000 0.1000 (  2415 PWs)   bands (ev):

    -5.5530   1.7823   3.6011   3.6350   6.7428   8.2619   9.3286   9.3303

          k = 0.3667-0.0917 0.0917 (  2413 PWs)   bands (ev):

    -5.6632   2.0782   3.7568   3.7671   6.7989   8.1813   9.1208   9.3205

          k = 0.3333-0.0833 0.0833 (  2409 PWs)   bands (ev):

    -5.7643   2.3785   3.8837   3.9285   6.8587   8.0754   8.9091   9.2698

          k = 0.3000-0.0750 0.0750 (  2411 PWs)   bands (ev):

    -5.8562   2.6824   4.0146   4.0842   6.9221   7.9559   8.6960   9.1455

          k = 0.2667-0.0667 0.0667 (  2405 PWs)   bands (ev):

    -5.9388   2.9888   4.1482   4.2328   6.9884   7.8304   8.4842   8.9459

          k = 0.2333-0.0583 0.0583 (  2407 PWs)   bands (ev):

    -6.0119   3.2962   4.2827   4.3727   7.0563   7.7039   8.2772   8.6933

          k = 0.2000-0.0500 0.0500 (  2396 PWs)   bands (ev):

    -6.0754   3.6023   4.4155   4.5022   7.1240   7.5790   8.0786   8.4135

          k = 0.1667-0.0417 0.0417 (  2394 PWs)   bands (ev):

    -6.1293   3.9034   4.5435   4.6189   7.1886   7.4566   7.8931   8.1289

          k = 0.1333-0.0333 0.0333 (  2411 PWs)   bands (ev):

    -6.1734   4.1937   4.6621   4.7205   7.2429   7.3375   7.7260   7.8616

          k = 0.1000-0.0250 0.0250 (  2419 PWs)   bands (ev):

    -6.2078   4.4631   4.7658   4.8042   7.1860   7.3108   7.5838   7.6392

          k = 0.0667-0.0167 0.0167 (  2421 PWs)   bands (ev):

    -6.2324   4.6942   4.8476   4.8668   7.0431   7.3469   7.4740   7.4869

          k = 0.0333-0.0083 0.0083 (  2421 PWs)   bands (ev):

    -6.2472   4.8581   4.9006   4.9058   6.9188   7.3715   7.4040   7.4052

          k = 0.0000 0.0000 0.0000 (  2421 PWs)   bands (ev):

    -6.2521   4.9190   4.9190   4.9190   6.8686   7.3800   7.3800   7.3800

     Writing all to output data dir ./out/si.save/

     init_run     :      1.51s CPU      1.57s WALL (       1 calls)
     electrons    :     18.26s CPU     18.35s WALL (       1 calls)

     Called by init_run:
     wfcinit      :      0.00s CPU      0.00s WALL (       1 calls)
     potinit      :      0.44s CPU      0.46s WALL (       1 calls)
     hinit0       :      0.91s CPU      0.92s WALL (       1 calls)

     Called by electrons:
     c_bands      :     18.26s CPU     18.35s WALL (       1 calls)
     v_of_rho     :      0.11s CPU      0.12s WALL (       1 calls)
     newd         :      0.10s CPU      0.14s WALL (       1 calls)

     Called by c_bands:
     init_us_2    :      0.04s CPU      0.04s WALL (      91 calls)
     init_us_2:cp :      0.04s CPU      0.04s WALL (      91 calls)
     cegterg      :     17.05s CPU     17.12s WALL (     188 calls)

     Called by *egterg:
     cdiaghg      :      0.76s CPU      0.77s WALL (    2841 calls)
     h_psi        :     14.51s CPU     14.57s WALL (    3029 calls)
     s_psi        :      0.70s CPU      0.70s WALL (    3029 calls)
     g_psi        :      0.06s CPU      0.06s WALL (    2750 calls)

     Called by h_psi:
     h_psi:calbec :      0.72s CPU      0.73s WALL (    3029 calls)
     vloc_psi     :     13.05s CPU     13.10s WALL (    3029 calls)
     add_vuspsi   :      0.70s CPU      0.70s WALL (    3029 calls)

     General routines
     calbec       :      0.72s CPU      0.72s WALL (    3029 calls)
     fft          :      0.69s CPU      0.70s WALL (      13 calls)
     ffts         :      0.32s CPU      0.32s WALL (       1 calls)
     fftw         :      9.71s CPU      9.75s WALL (   35384 calls)
     interpolate  :      0.33s CPU      0.33s WALL (       1 calls)
     davcio       :      0.00s CPU      0.01s WALL (     182 calls)

     Parallel routines

     PWSCF        :     19.98s CPU     20.19s WALL


   This run was terminated on:  16:47:22   9Dec2022            

=------------------------------------------------------------------------------=
   JOB DONE.
=------------------------------------------------------------------------------=
