
     Program PWSCF v.7.1 starts on 22Dec2022 at 13: 4:36 
        Git branch: develop
        Last git commit: 9ddde6fa44e0fb1c7debb78532a4b581a6ef82fd
        Last git commit date: Fri Oct 28 07:34:35 2022 +0000
        Last git commit subject: Merge branch 'fix_hubbardocc' into 'develop'

     This program is part of the open-source Quantum ESPRESSO suite
     for quantum simulation of materials; please cite
         "P. Giannozzi et al., J. Phys.:Condens. Matter 21 395502 (2009);
         "P. Giannozzi et al., J. Phys.:Condens. Matter 29 465901 (2017);
         "P. Giannozzi et al., J. Chem. Phys. 152 154105 (2020);
          URL http://www.quantum-espresso.org", 
     in publications or presentations arising from this work. More details at
     http://www.quantum-espresso.org/quote

     Parallel version (MPI), running on     1 processors

     MPI processes distributed on     1 nodes
     0 MiB available memory on the printing compute node when the environment starts

     Waiting for input...
     Reading input from standard input
Warning: card &IONS ignored
Warning: card / ignored
Warning: card &CELL ignored
Warning: card / ignored

     Current dimensions of program PWSCF are:
     Max number of different atomic species (ntypx) = 10
     Max number of k-points (npk) =  40000
     Max angular momentum in pseudopotentials (lmaxx) =  4

     Atomic positions and unit cell read from directory:
     ./out/Si.save/
     Atomic positions from file used, from input discarded

     Message from routine setup:
     using ibrav=0 with symmetry is DISCOURAGED, use correct ibrav instead

     Subspace diagonalization in iterative solution of the eigenvalue problem:
     a serial algorithm will be used


     G-vector sticks info
     --------------------
     sticks:   dense  smooth     PW     G-vecs:    dense   smooth      PW
     Sum         877     877    265                17261    17261    2837

     Using Slab Decomposition



     bravais-lattice index     =            0
     lattice parameter (alat)  =       7.3075  a.u.
     unit-cell volume          =     275.9279 (a.u.)^3
     number of atoms/cell      =            2
     number of atomic types    =            1
     number of electrons       =         8.00
     number of Kohn-Sham states=            8
     kinetic-energy cutoff     =      60.0000  Ry
     charge density cutoff     =     240.0000  Ry
     Exchange-correlation= PBESOL
                           (   1   4  10   8   0   0   0)

     celldm(1)=   7.307523  celldm(2)=   0.000000  celldm(3)=   0.000000
     celldm(4)=   0.000000  celldm(5)=   0.000000  celldm(6)=   0.000000

     crystal axes: (cart. coord. in units of alat)
               a(1) = (  -0.707107  -0.707107   0.000000 )  
               a(2) = (  -0.707107   0.000000  -0.707107 )  
               a(3) = (   0.000000  -0.707107  -0.707107 )  

     reciprocal axes: (cart. coord. in units 2 pi/alat)
               b(1) = ( -0.707107 -0.707107  0.707107 )  
               b(2) = ( -0.707107  0.707107 -0.707107 )  
               b(3) = (  0.707107 -0.707107 -0.707107 )  


     PseudoPot. # 1 for Si read from file:
     ../pseudo/Si.pbesol-n-rrkjus_psl.1.0.0.UPF
     MD5 check sum: c4212819de858c94c3a1644338846ac9
     Pseudo is Ultrasoft + core correction, Zval =  4.0
     Generated using "atomic" code by A. Dal Corso  v.6.0 svn rev. 13079
     Using radial grid of 1141 points,  6 beta functions with: 
                l(1) =   0
                l(2) =   0
                l(3) =   1
                l(4) =   1
                l(5) =   2
                l(6) =   2
     Q(r) pseudized with 0 coefficients 


     atomic species   valence    mass     pseudopotential
        Si             4.00    28.08550     Si( 1.00)

     48 Sym. Ops., with inversion, found (24 have fractional translation)



   Cartesian axes

     site n.     atom                  positions (alat units)
         1           Si  tau(   1) = (  -0.3535534  -0.3535534  -0.3535534  )
         2           Si  tau(   2) = (  -0.7071068  -0.7071068  -0.7071068  )

     number of k points=    20 (tetrahedron method)
                       cart. coord. in units 2pi/alat
        k(    1) = (   0.0000000   0.0000000   0.0000000), wk =   0.0058309
        k(    2) = (   0.1010153  -0.1010153  -0.1010153), wk =   0.0466472
        k(    3) = (   0.2020305  -0.2020305  -0.2020305), wk =   0.0466472
        k(    4) = (   0.3030458  -0.3030458  -0.3030458), wk =   0.0466472
        k(    5) = (   0.0000000   0.0000000  -0.2020305), wk =   0.0349854
        k(    6) = (   0.1010153  -0.1010153  -0.3030458), wk =   0.1399417
        k(    7) = (   0.2020305  -0.2020305  -0.4040610), wk =   0.1399417
        k(    8) = (  -0.4040610   0.4040610   0.2020305), wk =   0.1399417
        k(    9) = (  -0.3030458   0.3030458   0.1010153), wk =   0.1399417
        k(   10) = (  -0.2020305   0.2020305   0.0000000), wk =   0.0699708
        k(   11) = (   0.0000000   0.0000000  -0.4040610), wk =   0.0349854
        k(   12) = (   0.1010153  -0.1010153  -0.5050763), wk =   0.1399417
        k(   13) = (  -0.5050763   0.5050763   0.1010153), wk =   0.1399417
        k(   14) = (  -0.4040610   0.4040610   0.0000000), wk =   0.0699708
        k(   15) = (   0.0000000   0.0000000  -0.6060915), wk =   0.0349854
        k(   16) = (  -0.6060915   0.6060915   0.0000000), wk =   0.0699708
        k(   17) = (  -0.0000000  -0.2020305  -0.4040610), wk =   0.1399417
        k(   18) = (  -0.6060915   0.4040610   0.2020305), wk =   0.2798834
        k(   19) = (  -0.7071068   0.5050763   0.1010153), wk =   0.1399417
        k(   20) = (  -0.6060915   0.4040610   0.0000000), wk =   0.1399417

     Dense  grid:    17261 G-vectors     FFT dimensions: (  40,  40,  40)

     Estimated max dynamical RAM per process >      58.82 MB

     The potential is recalculated from file :
     ./out/Si.save/charge-density

     Starting wfcs are    8 randomized atomic wfcs

     Band Structure Calculation
     Davidson diagonalization with overlap

     ethr =  1.25E-08,  avg # of iterations = 25.1

     total cpu time spent up to now is        3.6 secs

     End of band structure calculation

          k = 0.0000 0.0000 0.0000 (  2109 PWs)   bands (ev):

    -5.8725   5.9836   5.9836   5.9836   8.4765   8.4765   8.4765   9.0585

          k = 0.1010-0.1010-0.1010 (  2133 PWs)   bands (ev):

    -5.6101   4.0400   5.6271   5.6271   8.2877   8.9940   8.9940  10.7765

          k = 0.2020-0.2020-0.2020 (  2154 PWs)   bands (ev):

    -4.8537   1.4411   5.1151   5.1151   7.7347   9.4413   9.4413  13.1941

          k = 0.3030-0.3030-0.3030 (  2165 PWs)   bands (ev):

    -3.8257  -0.5691   4.8295   4.8295   7.4068   9.2898   9.2898  13.5192

          k = 0.0000 0.0000-0.2020 (  2145 PWs)   bands (ev):

    -5.5213   4.3275   5.0139   5.0139   7.7791   9.8720   9.8720  10.2025

          k = 0.1010-0.1010-0.3030 (  2149 PWs)   bands (ev):

    -4.9224   2.2257   4.4232   4.4760   7.9674   9.7505  10.4397  10.6461

          k = 0.2020-0.2020-0.4041 (  2143 PWs)   bands (ev):

    -3.9261   0.0639   3.7366   4.2898   8.0174   9.6894  10.4303  11.6343

          k =-0.4041 0.4041 0.2020 (  2167 PWs)   bands (ev):

    -3.3734  -0.7917   3.3258   4.4873   8.1090   9.6012  10.0361  13.9543

          k =-0.3030 0.3030 0.1010 (  2157 PWs)   bands (ev):

    -4.2901   0.7369   3.3306   4.9984   8.5060   9.7982   9.8083  12.4536

          k =-0.2020 0.2020 0.0000 (  2145 PWs)   bands (ev):

    -5.1796   2.8401   4.0181   5.5885   8.9116   9.1982   9.4384  11.4373

          k = 0.0000 0.0000-0.4041 (  2165 PWs)   bands (ev):

    -4.4843   1.8220   3.8585   3.8585   6.8217   8.4808  12.2573  12.2573

          k = 0.1010-0.1010-0.5051 (  2162 PWs)   bands (ev):

    -3.5932   0.3378   2.8762   3.6014   7.1014   8.5770  12.4504  12.6467

          k =-0.5051 0.5051 0.1010 (  2172 PWs)   bands (ev):

    -2.6859  -0.8273   1.9255   3.7694   7.3353  10.8086  12.1501  12.1749

          k =-0.4041 0.4041 0.0000 (  2157 PWs)   bands (ev):

    -3.3285  -0.0846   1.8512   4.3151   7.9387  11.3303  11.6493  12.3984

          k = 0.0000 0.0000-0.6061 (  2160 PWs)   bands (ev):

    -2.8191  -0.6476   3.2329   3.2329   6.4620   6.9726  14.8581  14.8581

          k =-0.6061 0.6061 0.0000 (  2185 PWs)   bands (ev):

    -1.8802  -1.5951   2.3339   3.2941   6.7603   8.0209  14.6305  15.0242

          k =-0.0000-0.2020-0.4041 (  2160 PWs)   bands (ev):

    -4.1794   1.0962   2.8771   4.2016   8.4727   9.6924  10.0131  12.0085

          k =-0.6061 0.4041 0.2020 (  2186 PWs)   bands (ev):

    -3.1498  -0.4188   2.3064   3.6671   8.9471   9.3576  11.3199  12.4528

          k =-0.7071 0.5051 0.1010 (  2170 PWs)   bands (ev):

    -2.6162  -0.7320   2.3991   2.8100   8.0974   8.4576  11.9992  14.4682

          k =-0.6061 0.4041 0.0000 (  2170 PWs)   bands (ev):

    -2.1839  -1.1243   1.7611   2.9005   8.6181  10.7142  11.4887  11.6319

     the Fermi energy is     6.2084 ev
     (compare with:     5.9868 eV, computed in scf)

     Writing all to output data dir ./out/Si.save/

     init_run     :      0.52s CPU      0.54s WALL (       1 calls)
     electrons    :      2.86s CPU      2.88s WALL (       1 calls)

     Called by init_run:
     wfcinit      :      0.00s CPU      0.00s WALL (       1 calls)
     potinit      :      0.02s CPU      0.02s WALL (       1 calls)
     hinit0       :      0.48s CPU      0.48s WALL (       1 calls)

     Called by electrons:
     c_bands      :      2.86s CPU      2.87s WALL (       1 calls)
     v_of_rho     :      0.02s CPU      0.02s WALL (       1 calls)
     newd         :      0.02s CPU      0.02s WALL (       1 calls)

     Called by c_bands:
     init_us_2    :      0.01s CPU      0.01s WALL (      20 calls)
     init_us_2:cp :      0.01s CPU      0.01s WALL (      20 calls)
     cegterg      :      2.41s CPU      2.42s WALL (      34 calls)

     Called by *egterg:
     cdiaghg      :      0.13s CPU      0.13s WALL (     523 calls)
     h_psi        :      2.26s CPU      2.27s WALL (     557 calls)
     s_psi        :      0.11s CPU      0.11s WALL (     557 calls)
     g_psi        :      0.01s CPU      0.01s WALL (     503 calls)

     Called by h_psi:
     h_psi:calbec :      0.11s CPU      0.11s WALL (     557 calls)
     vloc_psi     :      2.04s CPU      2.05s WALL (     557 calls)
     add_vuspsi   :      0.11s CPU      0.11s WALL (     557 calls)

     General routines
     calbec       :      0.11s CPU      0.11s WALL (     557 calls)
     fft          :      0.33s CPU      0.33s WALL (      12 calls)
     fftw         :      1.81s CPU      1.81s WALL (    6006 calls)
     davcio       :      0.00s CPU      0.00s WALL (      40 calls)

     Parallel routines

     PWSCF        :      3.57s CPU      3.62s WALL


   This run was terminated on:  13: 4:40  22Dec2022            

=------------------------------------------------------------------------------=
   JOB DONE.
=------------------------------------------------------------------------------=
