
     Program PROJWFC v.7.1 starts on 12Dec2022 at  0:17:45 
        Git branch: develop
        Last git commit: 9ddde6fa44e0fb1c7debb78532a4b581a6ef82fd
        Last git commit date: Fri Oct 28 07:34:35 2022 +0000
        Last git commit subject: Merge branch 'fix_hubbardocc' into 'develop'

     This program is part of the open-source Quantum ESPRESSO suite
     for quantum simulation of materials; please cite
         "P. Giannozzi et al., J. Phys.:Condens. Matter 21 395502 (2009);
         "P. Giannozzi et al., J. Phys.:Condens. Matter 29 465901 (2017);
         "P. Giannozzi et al., J. Chem. Phys. 152 154105 (2020);
          URL http://www.quantum-espresso.org", 
     in publications or presentations arising from this work. More details at
     http://www.quantum-espresso.org/quote

     Parallel version (MPI), running on     1 processors

     MPI processes distributed on     1 nodes
     0 MiB available memory on the printing compute node when the environment starts


     Reading xml data from directory:

     ./out/Si.save/

     IMPORTANT: XC functional enforced from input :
     Exchange-correlation= PBESOL
                           (   1   4  10   8   0   0   0)
     Any further DFT definition will be discarded
     Please, verify this is what you really want


     G-vector sticks info
     --------------------
     sticks:   dense  smooth     PW     G-vecs:    dense   smooth      PW
     Sum         877     877    265                17261    17261    2837

     Using Slab Decomposition


     Gaussian broadening (read from input): ngauss,degauss=   0    0.010000


     Calling projwave .... 
     Subspace diagonalization in iterative solution of the eigenvalue problem:
     a serial algorithm will be used


  Problem Sizes 
  natomwfc =            8
  nbnd     =            8
  nkstot   =           16
  npwx     =         2200
  nkb      =           36


     Atomic states used for projection
     (read from pseudopotential files):

     state #   1: atom   1 (Si ), wfc  1 (l=0 m= 1)
     state #   2: atom   1 (Si ), wfc  2 (l=1 m= 1)
     state #   3: atom   1 (Si ), wfc  2 (l=1 m= 2)
     state #   4: atom   1 (Si ), wfc  2 (l=1 m= 3)
     state #   5: atom   2 (Si ), wfc  1 (l=0 m= 1)
     state #   6: atom   2 (Si ), wfc  2 (l=1 m= 1)
     state #   7: atom   2 (Si ), wfc  2 (l=1 m= 2)
     state #   8: atom   2 (Si ), wfc  2 (l=1 m= 3)

 k =   0.0000000000  0.0000000000  0.0000000000
==== e(   1) =    -5.87252 eV ==== 
     psi = 0.498*[#   1]+0.498*[#   5]
    |psi|^2 = 0.997
==== e(   2) =     5.98363 eV ==== 
     psi = 0.160*[#   2]+0.160*[#   3]+0.160*[#   4]+0.160*[#   6]+0.160*[#   7]
          +0.160*[#   8]
    |psi|^2 = 0.962
==== e(   3) =     5.98363 eV ==== 
     psi = 0.160*[#   2]+0.160*[#   3]+0.160*[#   4]+0.160*[#   6]+0.160*[#   7]
          +0.160*[#   8]
    |psi|^2 = 0.962
==== e(   4) =     5.98363 eV ==== 
     psi = 0.160*[#   2]+0.160*[#   3]+0.160*[#   4]+0.160*[#   6]+0.160*[#   7]
          +0.160*[#   8]
    |psi|^2 = 0.962
==== e(   5) =     8.47647 eV ==== 
     psi = 0.161*[#   2]+0.161*[#   3]+0.161*[#   4]+0.161*[#   6]+0.161*[#   7]
          +0.161*[#   8]
    |psi|^2 = 0.966
==== e(   6) =     8.47647 eV ==== 
     psi = 0.161*[#   2]+0.161*[#   3]+0.161*[#   4]+0.161*[#   6]+0.161*[#   7]
          +0.161*[#   8]
    |psi|^2 = 0.966
==== e(   7) =     8.47647 eV ==== 
     psi = 0.161*[#   2]+0.161*[#   3]+0.161*[#   4]+0.161*[#   6]+0.161*[#   7]
          +0.161*[#   8]
    |psi|^2 = 0.966
==== e(   8) =     9.05853 eV ==== 
     psi = 0.494*[#   1]+0.494*[#   5]
    |psi|^2 = 0.988

 k =   0.1178511302 -0.1178511302 -0.1178511302
==== e(   1) =    -5.51632 eV ==== 
     psi = 0.427*[#   1]+0.427*[#   5]+0.024*[#   2]+0.024*[#   3]+0.024*[#   4]
          +0.024*[#   6]+0.024*[#   7]+0.024*[#   8]
    |psi|^2 = 0.996
==== e(   2) =     3.59361 eV ==== 
     psi = 0.125*[#   2]+0.125*[#   3]+0.125*[#   4]+0.125*[#   6]+0.125*[#   7]
          +0.125*[#   8]+0.115*[#   1]+0.115*[#   5]
    |psi|^2 = 0.982
==== e(   3) =     5.53456 eV ==== 
     psi = 0.162*[#   2]+0.162*[#   3]+0.162*[#   4]+0.162*[#   6]+0.162*[#   7]
          +0.162*[#   8]
    |psi|^2 = 0.975
==== e(   4) =     5.53456 eV ==== 
     psi = 0.162*[#   2]+0.162*[#   3]+0.162*[#   4]+0.162*[#   6]+0.162*[#   7]
          +0.162*[#   8]
    |psi|^2 = 0.975
==== e(   5) =     8.19296 eV ==== 
     psi = 0.208*[#   1]+0.208*[#   5]+0.090*[#   2]+0.090*[#   3]+0.090*[#   4]
          +0.090*[#   6]+0.090*[#   7]+0.090*[#   8]
    |psi|^2 = 0.956
==== e(   6) =     9.11847 eV ==== 
     psi = 0.157*[#   2]+0.157*[#   3]+0.157*[#   4]+0.157*[#   6]+0.157*[#   7]
          +0.157*[#   8]
    |psi|^2 = 0.942
==== e(   7) =     9.11847 eV ==== 
     psi = 0.157*[#   2]+0.157*[#   3]+0.157*[#   4]+0.157*[#   6]+0.157*[#   7]
          +0.157*[#   8]
    |psi|^2 = 0.942
==== e(   8) =    11.20138 eV ==== 
     psi = 0.234*[#   1]+0.234*[#   5]+0.080*[#   2]+0.080*[#   3]+0.080*[#   4]
          +0.080*[#   6]+0.080*[#   7]+0.080*[#   8]
    |psi|^2 = 0.948

 k =   0.2357022604 -0.2357022604 -0.2357022604
==== e(   1) =    -4.51467 eV ==== 
     psi = 0.365*[#   1]+0.365*[#   5]+0.044*[#   2]+0.044*[#   3]+0.044*[#   4]
          +0.044*[#   6]+0.044*[#   7]+0.044*[#   8]
    |psi|^2 = 0.996
==== e(   2) =     0.66920 eV ==== 
     psi = 0.153*[#   1]+0.153*[#   5]+0.114*[#   2]+0.114*[#   3]+0.114*[#   4]
          +0.114*[#   6]+0.114*[#   7]+0.114*[#   8]
    |psi|^2 = 0.989
==== e(   3) =     4.98929 eV ==== 
     psi = 0.164*[#   2]+0.164*[#   3]+0.164*[#   4]+0.164*[#   6]+0.164*[#   7]
          +0.164*[#   8]
    |psi|^2 = 0.985
==== e(   4) =     4.98929 eV ==== 
     psi = 0.164*[#   2]+0.164*[#   3]+0.164*[#   4]+0.164*[#   6]+0.164*[#   7]
          +0.164*[#   8]
    |psi|^2 = 0.985
==== e(   5) =     7.59151 eV ==== 
     psi = 0.306*[#   1]+0.306*[#   5]+0.054*[#   2]+0.054*[#   3]+0.054*[#   4]
          +0.054*[#   6]+0.054*[#   7]+0.054*[#   8]
    |psi|^2 = 0.935
==== e(   6) =     9.41361 eV ==== 
     psi = 0.136*[#   2]+0.136*[#   3]+0.136*[#   4]+0.136*[#   6]+0.136*[#   7]
          +0.136*[#   8]
    |psi|^2 = 0.815
==== e(   7) =     9.41361 eV ==== 
     psi = 0.136*[#   2]+0.136*[#   3]+0.136*[#   4]+0.136*[#   6]+0.136*[#   7]
          +0.136*[#   8]
    |psi|^2 = 0.815
==== e(   8) =    13.60224 eV ==== 
     psi = 0.070*[#   1]+0.070*[#   5]+0.060*[#   2]+0.060*[#   3]+0.060*[#   4]
          +0.060*[#   6]+0.060*[#   7]+0.060*[#   8]
    |psi|^2 = 0.503

 k =  -0.3535533906  0.3535533906  0.3535533906
==== e(   1) =    -3.57302 eV ==== 
     psi = 0.388*[#   1]+0.388*[#   5]+0.037*[#   2]+0.037*[#   3]+0.037*[#   4]
          +0.037*[#   6]+0.037*[#   7]+0.037*[#   8]
    |psi|^2 = 0.997
==== e(   2) =    -0.94643 eV ==== 
     psi = 0.124*[#   2]+0.124*[#   3]+0.124*[#   4]+0.124*[#   6]+0.124*[#   7]
          +0.124*[#   8]+0.121*[#   1]+0.121*[#   5]
    |psi|^2 = 0.988
==== e(   3) =     4.79328 eV ==== 
     psi = 0.165*[#   2]+0.165*[#   3]+0.165*[#   4]+0.165*[#   6]+0.165*[#   7]
          +0.165*[#   8]
    |psi|^2 = 0.988
==== e(   4) =     4.79328 eV ==== 
     psi = 0.165*[#   2]+0.165*[#   3]+0.165*[#   4]+0.165*[#   6]+0.165*[#   7]
          +0.165*[#   8]
    |psi|^2 = 0.988
==== e(   5) =     7.36461 eV ==== 
     psi = 0.339*[#   1]+0.339*[#   5]+0.041*[#   2]+0.041*[#   3]+0.041*[#   4]
          +0.041*[#   6]+0.041*[#   7]+0.041*[#   8]
    |psi|^2 = 0.922
==== e(   6) =     9.24963 eV ==== 
     psi = 0.128*[#   2]+0.128*[#   3]+0.128*[#   4]+0.128*[#   6]+0.128*[#   7]
          +0.128*[#   8]
    |psi|^2 = 0.769
==== e(   7) =     9.24963 eV ==== 
     psi = 0.128*[#   2]+0.128*[#   3]+0.128*[#   4]+0.128*[#   6]+0.128*[#   7]
          +0.128*[#   8]
    |psi|^2 = 0.769
==== e(   8) =    13.45649 eV ==== 
     psi = 0.022*[#   2]+0.022*[#   3]+0.022*[#   4]+0.022*[#   6]+0.022*[#   7]
          +0.022*[#   8]+0.018*[#   1]+0.018*[#   5]
    |psi|^2 = 0.169

 k =   0.0000000000  0.0000000000 -0.2357022604
==== e(   1) =    -5.39512 eV ==== 
     psi = 0.408*[#   1]+0.408*[#   5]+0.030*[#   2]+0.030*[#   3]+0.030*[#   4]
          +0.030*[#   6]+0.030*[#   7]+0.030*[#   8]
    |psi|^2 = 0.996
==== e(   2) =     3.92144 eV ==== 
     psi = 0.174*[#   1]+0.174*[#   5]+0.105*[#   2]+0.105*[#   3]+0.105*[#   4]
          +0.105*[#   6]+0.105*[#   7]+0.105*[#   8]
    |psi|^2 = 0.979
==== e(   3) =     4.79604 eV ==== 
     psi = 0.164*[#   2]+0.164*[#   3]+0.164*[#   4]+0.164*[#   6]+0.164*[#   7]
          +0.164*[#   8]
    |psi|^2 = 0.983
==== e(   4) =     4.79604 eV ==== 
     psi = 0.164*[#   2]+0.164*[#   3]+0.164*[#   4]+0.164*[#   6]+0.164*[#   7]
          +0.164*[#   8]
    |psi|^2 = 0.983
==== e(   5) =     7.60024 eV ==== 
     psi = 0.131*[#   2]+0.131*[#   3]+0.131*[#   4]+0.131*[#   6]+0.131*[#   7]
          +0.131*[#   8]+0.085*[#   1]+0.085*[#   5]
    |psi|^2 = 0.959
==== e(   6) =    10.10752 eV ==== 
     psi = 0.210*[#   1]+0.210*[#   5]+0.047*[#   2]+0.047*[#   3]+0.047*[#   4]
          +0.047*[#   6]+0.047*[#   7]+0.047*[#   8]
    |psi|^2 = 0.701
==== e(   7) =    10.24113 eV ==== 
     psi = 0.153*[#   2]+0.153*[#   3]+0.153*[#   4]+0.153*[#   6]+0.153*[#   7]
          +0.153*[#   8]
    |psi|^2 = 0.917
==== e(   8) =    10.24113 eV ==== 
     psi = 0.153*[#   2]+0.153*[#   3]+0.153*[#   4]+0.153*[#   6]+0.153*[#   7]
          +0.153*[#   8]
    |psi|^2 = 0.917

 k =   0.1178511302 -0.1178511302 -0.3535533906
==== e(   1) =    -4.59105 eV ==== 
     psi = 0.353*[#   1]+0.353*[#   5]+0.048*[#   2]+0.048*[#   3]+0.048*[#   4]
          +0.048*[#   6]+0.048*[#   7]+0.048*[#   8]
    |psi|^2 = 0.996
==== e(   2) =     1.55418 eV ==== 
     psi = 0.183*[#   1]+0.183*[#   5]+0.104*[#   2]+0.104*[#   3]+0.104*[#   4]
          +0.104*[#   6]+0.104*[#   7]+0.104*[#   8]
    |psi|^2 = 0.989
==== e(   3) =     3.98773 eV ==== 
     psi = 0.145*[#   2]+0.145*[#   3]+0.145*[#   4]+0.145*[#   6]+0.145*[#   7]
          +0.145*[#   8]+0.059*[#   1]+0.059*[#   5]
    |psi|^2 = 0.989
==== e(   4) =     4.24842 eV ==== 
     psi = 0.165*[#   2]+0.165*[#   3]+0.165*[#   4]+0.165*[#   6]+0.165*[#   7]
          +0.165*[#   8]
    |psi|^2 = 0.989
==== e(   5) =     7.85342 eV ==== 
     psi = 0.114*[#   2]+0.114*[#   3]+0.114*[#   4]+0.114*[#   6]+0.114*[#   7]
          +0.114*[#   8]+0.105*[#   1]+0.105*[#   5]
    |psi|^2 = 0.894
==== e(   6) =     9.90655 eV ==== 
     psi = 0.155*[#   1]+0.155*[#   5]+0.069*[#   2]+0.069*[#   3]+0.069*[#   4]
          +0.069*[#   6]+0.069*[#   7]+0.069*[#   8]
    |psi|^2 = 0.725
==== e(   7) =    10.40058 eV ==== 
     psi = 0.091*[#   2]+0.091*[#   3]+0.091*[#   4]+0.091*[#   6]+0.091*[#   7]
          +0.091*[#   8]+0.026*[#   1]+0.026*[#   5]
    |psi|^2 = 0.599
==== e(   8) =    10.96361 eV ==== 
     psi = 0.135*[#   2]+0.135*[#   3]+0.135*[#   4]+0.135*[#   6]+0.135*[#   7]
          +0.135*[#   8]
    |psi|^2 = 0.810

 k =  -0.4714045208  0.4714045208  0.2357022604
==== e(   1) =    -3.41597 eV ==== 
     psi = 0.356*[#   1]+0.356*[#   5]+0.048*[#   2]+0.048*[#   3]+0.048*[#   4]
          +0.048*[#   6]+0.048*[#   7]+0.048*[#   8]
    |psi|^2 = 0.996
==== e(   2) =    -0.58764 eV ==== 
     psi = 0.162*[#   1]+0.162*[#   5]+0.111*[#   2]+0.111*[#   3]+0.111*[#   4]
          +0.111*[#   6]+0.111*[#   7]+0.111*[#   8]
    |psi|^2 = 0.990
==== e(   3) =     3.20802 eV ==== 
     psi = 0.142*[#   2]+0.142*[#   3]+0.142*[#   4]+0.142*[#   6]+0.142*[#   7]
          +0.142*[#   8]+0.069*[#   1]+0.069*[#   5]
    |psi|^2 = 0.991
==== e(   4) =     4.21937 eV ==== 
     psi = 0.165*[#   2]+0.165*[#   3]+0.165*[#   4]+0.165*[#   6]+0.165*[#   7]
          +0.165*[#   8]
    |psi|^2 = 0.990
==== e(   5) =     7.91765 eV ==== 
     psi = 0.133*[#   1]+0.133*[#   5]+0.095*[#   2]+0.095*[#   3]+0.095*[#   4]
          +0.095*[#   6]+0.095*[#   7]+0.095*[#   8]
    |psi|^2 = 0.835
==== e(   6) =     9.97007 eV ==== 
     psi = 0.103*[#   1]+0.103*[#   5]+0.093*[#   2]+0.093*[#   3]+0.093*[#   4]
          +0.093*[#   6]+0.093*[#   7]+0.093*[#   8]
    |psi|^2 = 0.761
==== e(   7) =    10.51770 eV ==== 
     psi = 0.121*[#   2]+0.121*[#   3]+0.121*[#   4]+0.121*[#   6]+0.121*[#   7]
          +0.121*[#   8]
    |psi|^2 = 0.729
==== e(   8) =    12.25719 eV ==== 
     psi = 0.067*[#   1]+0.067*[#   5]+0.054*[#   2]+0.054*[#   3]+0.054*[#   4]
          +0.054*[#   6]+0.054*[#   7]+0.054*[#   8]
    |psi|^2 = 0.459

 k =  -0.3535533906  0.3535533906  0.1178511302
==== e(   1) =    -3.79563 eV ==== 
     psi = 0.348*[#   1]+0.348*[#   5]+0.050*[#   2]+0.050*[#   3]+0.050*[#   4]
          +0.050*[#   6]+0.050*[#   7]+0.050*[#   8]
    |psi|^2 = 0.996
==== e(   2) =     0.00396 eV ==== 
     psi = 0.174*[#   1]+0.174*[#   5]+0.107*[#   2]+0.107*[#   3]+0.107*[#   4]
          +0.107*[#   6]+0.107*[#   7]+0.107*[#   8]
    |psi|^2 = 0.991
==== e(   3) =     2.94134 eV ==== 
     psi = 0.145*[#   2]+0.145*[#   3]+0.145*[#   4]+0.145*[#   6]+0.145*[#   7]
          +0.145*[#   8]+0.062*[#   1]+0.062*[#   5]
    |psi|^2 = 0.991
==== e(   4) =     4.69486 eV ==== 
     psi = 0.165*[#   2]+0.165*[#   3]+0.165*[#   4]+0.165*[#   6]+0.165*[#   7]
          +0.165*[#   8]
    |psi|^2 = 0.988
==== e(   5) =     8.31701 eV ==== 
     psi = 0.140*[#   1]+0.140*[#   5]+0.096*[#   2]+0.096*[#   3]+0.096*[#   4]
          +0.096*[#   6]+0.096*[#   7]+0.096*[#   8]
    |psi|^2 = 0.858
==== e(   6) =     9.98254 eV ==== 
     psi = 0.093*[#   2]+0.093*[#   3]+0.093*[#   4]+0.093*[#   6]+0.093*[#   7]
          +0.093*[#   8]+0.091*[#   1]+0.091*[#   5]
    |psi|^2 = 0.740
==== e(   7) =    10.12568 eV ==== 
     psi = 0.131*[#   2]+0.131*[#   3]+0.131*[#   4]+0.131*[#   6]+0.131*[#   7]
          +0.131*[#   8]
    |psi|^2 = 0.786
==== e(   8) =    13.07949 eV ==== 
     psi = 0.096*[#   1]+0.096*[#   5]+0.063*[#   2]+0.063*[#   3]+0.063*[#   4]
          +0.063*[#   6]+0.063*[#   7]+0.063*[#   8]
    |psi|^2 = 0.567

 k =  -0.2357022604  0.2357022604  0.0000000000
==== e(   1) =    -4.93619 eV ==== 
     psi = 0.372*[#   1]+0.372*[#   5]+0.042*[#   2]+0.042*[#   3]+0.042*[#   4]
          +0.042*[#   6]+0.042*[#   7]+0.042*[#   8]
    |psi|^2 = 0.996
==== e(   2) =     2.26529 eV ==== 
     psi = 0.171*[#   1]+0.171*[#   5]+0.108*[#   2]+0.108*[#   3]+0.108*[#   4]
          +0.108*[#   6]+0.108*[#   7]+0.108*[#   8]
    |psi|^2 = 0.987
==== e(   3) =     3.57528 eV ==== 
     psi = 0.151*[#   2]+0.151*[#   3]+0.151*[#   4]+0.151*[#   6]+0.151*[#   7]
          +0.151*[#   8]+0.040*[#   1]+0.040*[#   5]
    |psi|^2 = 0.988
==== e(   4) =     5.42210 eV ==== 
     psi = 0.164*[#   2]+0.164*[#   3]+0.164*[#   4]+0.164*[#   6]+0.164*[#   7]
          +0.164*[#   8]
    |psi|^2 = 0.982
==== e(   5) =     8.89453 eV ==== 
     psi = 0.142*[#   1]+0.142*[#   5]+0.107*[#   2]+0.107*[#   3]+0.107*[#   4]
          +0.107*[#   6]+0.107*[#   7]+0.107*[#   8]
    |psi|^2 = 0.926
==== e(   6) =     9.45773 eV ==== 
     psi = 0.157*[#   2]+0.157*[#   3]+0.157*[#   4]+0.157*[#   6]+0.157*[#   7]
          +0.157*[#   8]
    |psi|^2 = 0.944
==== e(   7) =     9.72359 eV ==== 
     psi = 0.119*[#   2]+0.119*[#   3]+0.119*[#   4]+0.119*[#   6]+0.119*[#   7]
          +0.119*[#   8]+0.072*[#   1]+0.072*[#   5]
    |psi|^2 = 0.856
==== e(   8) =    11.46806 eV ==== 
     psi = 0.131*[#   1]+0.131*[#   5]+0.064*[#   2]+0.064*[#   3]+0.064*[#   4]
          +0.064*[#   6]+0.064*[#   7]+0.064*[#   8]
    |psi|^2 = 0.645

 k =   0.0000000000  0.0000000000 -0.4714045208
==== e(   1) =    -3.99464 eV ==== 
     psi = 0.322*[#   1]+0.322*[#   5]+0.058*[#   2]+0.058*[#   3]+0.058*[#   4]
          +0.058*[#   6]+0.058*[#   7]+0.058*[#   8]
    |psi|^2 = 0.995
==== e(   2) =     0.98140 eV ==== 
     psi = 0.248*[#   1]+0.248*[#   5]+0.082*[#   2]+0.082*[#   3]+0.082*[#   4]
          +0.082*[#   6]+0.082*[#   7]+0.082*[#   8]
    |psi|^2 = 0.990
==== e(   3) =     3.58323 eV ==== 
     psi = 0.166*[#   2]+0.166*[#   3]+0.166*[#   4]+0.166*[#   6]+0.166*[#   7]
          +0.166*[#   8]
    |psi|^2 = 0.993
==== e(   4) =     3.58323 eV ==== 
     psi = 0.166*[#   2]+0.166*[#   3]+0.166*[#   4]+0.166*[#   6]+0.166*[#   7]
          +0.166*[#   8]
    |psi|^2 = 0.993
==== e(   5) =     6.61746 eV ==== 
     psi = 0.160*[#   1]+0.160*[#   5]+0.102*[#   2]+0.102*[#   3]+0.102*[#   4]
          +0.102*[#   6]+0.102*[#   7]+0.102*[#   8]
    |psi|^2 = 0.929
==== e(   6) =     7.86861 eV ==== 
     psi = 0.134*[#   1]+0.134*[#   5]+0.055*[#   2]+0.055*[#   3]+0.055*[#   4]
          +0.055*[#   6]+0.055*[#   7]+0.055*[#   8]
    |psi|^2 = 0.600
==== e(   7) =    13.11111 eV ==== 
     psi = 0.133*[#   2]+0.133*[#   3]+0.133*[#   4]+0.133*[#   6]+0.133*[#   7]
          +0.133*[#   8]
    |psi|^2 = 0.799
==== e(   8) =    13.11111 eV ==== 
     psi = 0.133*[#   2]+0.133*[#   3]+0.133*[#   4]+0.133*[#   6]+0.133*[#   7]
          +0.133*[#   8]
    |psi|^2 = 0.799

 k =  -0.5892556510  0.5892556510  0.1178511302
==== e(   1) =    -2.84685 eV ==== 
     psi = 0.309*[#   1]+0.309*[#   5]+0.063*[#   2]+0.063*[#   3]+0.063*[#   4]
          +0.063*[#   6]+0.063*[#   7]+0.063*[#   8]
    |psi|^2 = 0.995
==== e(   2) =    -0.55133 eV ==== 
     psi = 0.266*[#   1]+0.266*[#   5]+0.077*[#   2]+0.077*[#   3]+0.077*[#   4]
          +0.077*[#   6]+0.077*[#   7]+0.077*[#   8]
    |psi|^2 = 0.993
==== e(   3) =     2.36839 eV ==== 
     psi = 0.162*[#   2]+0.162*[#   3]+0.162*[#   4]+0.162*[#   6]+0.162*[#   7]
          +0.162*[#   8]+0.012*[#   1]+0.012*[#   5]
    |psi|^2 = 0.994
==== e(   4) =     3.44841 eV ==== 
     psi = 0.166*[#   2]+0.166*[#   3]+0.166*[#   4]+0.166*[#   6]+0.166*[#   7]
          +0.166*[#   8]
    |psi|^2 = 0.994
==== e(   5) =     6.94930 eV ==== 
     psi = 0.144*[#   1]+0.144*[#   5]+0.091*[#   2]+0.091*[#   3]+0.091*[#   4]
          +0.091*[#   6]+0.091*[#   7]+0.091*[#   8]
    |psi|^2 = 0.837
==== e(   6) =     8.59683 eV ==== 
     psi = 0.119*[#   1]+0.119*[#   5]+0.074*[#   2]+0.074*[#   3]+0.074*[#   4]
          +0.074*[#   6]+0.074*[#   7]+0.074*[#   8]
    |psi|^2 = 0.685
==== e(   7) =    13.28695 eV ==== 
     psi = 0.091*[#   2]+0.091*[#   3]+0.091*[#   4]+0.091*[#   6]+0.091*[#   7]
          +0.091*[#   8]+0.058*[#   1]+0.058*[#   5]
    |psi|^2 = 0.662
==== e(   8) =    13.30347 eV ==== 
     psi = 0.109*[#   2]+0.109*[#   3]+0.109*[#   4]+0.109*[#   6]+0.109*[#   7]
          +0.109*[#   8]
    |psi|^2 = 0.654

 k =  -0.4714045208  0.4714045208  0.0000000000
==== e(   1) =    -2.65343 eV ==== 
     psi = 0.333*[#   1]+0.333*[#   5]+0.055*[#   2]+0.055*[#   3]+0.055*[#   4]
          +0.055*[#   6]+0.055*[#   7]+0.055*[#   8]
    |psi|^2 = 0.996
==== e(   2) =    -0.75285 eV ==== 
     psi = 0.246*[#   1]+0.246*[#   5]+0.084*[#   2]+0.084*[#   3]+0.084*[#   4]
          +0.084*[#   6]+0.084*[#   7]+0.084*[#   8]
    |psi|^2 = 0.994
==== e(   3) =     1.59138 eV ==== 
     psi = 0.163*[#   2]+0.163*[#   3]+0.163*[#   4]+0.163*[#   6]+0.163*[#   7]
          +0.163*[#   8]+0.008*[#   1]+0.008*[#   5]
    |psi|^2 = 0.994
==== e(   4) =     3.88683 eV ==== 
     psi = 0.165*[#   2]+0.165*[#   3]+0.165*[#   4]+0.165*[#   6]+0.165*[#   7]
          +0.165*[#   8]
    |psi|^2 = 0.992
==== e(   5) =     7.44749 eV ==== 
     psi = 0.117*[#   1]+0.117*[#   5]+0.099*[#   2]+0.099*[#   3]+0.099*[#   4]
          +0.099*[#   6]+0.099*[#   7]+0.099*[#   8]
    |psi|^2 = 0.828
==== e(   6) =    11.66427 eV ==== 
     psi = 0.032*[#   1]+0.032*[#   5]+0.025*[#   2]+0.025*[#   3]+0.025*[#   4]
          +0.025*[#   6]+0.025*[#   7]+0.025*[#   8]
    |psi|^2 = 0.212
==== e(   7) =    12.33047 eV ==== 
     psi = 0.143*[#   2]+0.143*[#   3]+0.143*[#   4]+0.143*[#   6]+0.143*[#   7]
          +0.143*[#   8]
    |psi|^2 = 0.855
==== e(   8) =    12.88947 eV ==== 
     psi = 0.105*[#   1]+0.105*[#   5]+0.079*[#   2]+0.079*[#   3]+0.079*[#   4]
          +0.079*[#   6]+0.079*[#   7]+0.079*[#   8]
    |psi|^2 = 0.685

 k =   0.0000000000  0.0000000000  0.7071067812
==== e(   1) =    -1.78562 eV ==== 
     psi = 0.284*[#   1]+0.284*[#   5]+0.071*[#   2]+0.071*[#   3]+0.071*[#   4]
          +0.071*[#   6]+0.071*[#   7]+0.071*[#   8]
    |psi|^2 = 0.994
==== e(   2) =    -1.78562 eV ==== 
     psi = 0.284*[#   1]+0.284*[#   5]+0.071*[#   2]+0.071*[#   3]+0.071*[#   4]
          +0.071*[#   6]+0.071*[#   7]+0.071*[#   8]
    |psi|^2 = 0.994
==== e(   3) =     3.15319 eV ==== 
     psi = 0.166*[#   2]+0.166*[#   3]+0.166*[#   4]+0.166*[#   6]+0.166*[#   7]
          +0.166*[#   8]
    |psi|^2 = 0.995
==== e(   4) =     3.15319 eV ==== 
     psi = 0.166*[#   2]+0.166*[#   3]+0.166*[#   4]+0.166*[#   6]+0.166*[#   7]
          +0.166*[#   8]
    |psi|^2 = 0.995
==== e(   5) =     6.59750 eV ==== 
     psi = 0.168*[#   1]+0.168*[#   5]+0.083*[#   2]+0.083*[#   3]+0.083*[#   4]
          +0.083*[#   6]+0.083*[#   7]+0.083*[#   8]
    |psi|^2 = 0.831
==== e(   6) =     6.59750 eV ==== 
     psi = 0.168*[#   1]+0.168*[#   5]+0.083*[#   2]+0.083*[#   3]+0.083*[#   4]
          +0.083*[#   6]+0.083*[#   7]+0.083*[#   8]
    |psi|^2 = 0.831
==== e(   7) =    15.85107 eV ==== 
     psi = 0.154*[#   2]+0.154*[#   3]+0.154*[#   4]+0.154*[#   6]+0.154*[#   7]
          +0.154*[#   8]
    |psi|^2 = 0.926
==== e(   8) =    15.85107 eV ==== 
     psi = 0.154*[#   2]+0.154*[#   3]+0.154*[#   4]+0.154*[#   6]+0.154*[#   7]
          +0.154*[#   8]
    |psi|^2 = 0.926

 k =  -0.7071067812  0.4714045208  0.2357022604
==== e(   1) =    -3.61471 eV ==== 
     psi = 0.326*[#   1]+0.326*[#   5]+0.057*[#   2]+0.057*[#   3]+0.057*[#   4]
          +0.057*[#   6]+0.057*[#   7]+0.057*[#   8]
    |psi|^2 = 0.995
==== e(   2) =     0.35869 eV ==== 
     psi = 0.239*[#   1]+0.239*[#   5]+0.086*[#   2]+0.086*[#   3]+0.086*[#   4]
          +0.086*[#   6]+0.086*[#   7]+0.086*[#   8]
    |psi|^2 = 0.992
==== e(   3) =     2.42797 eV ==== 
     psi = 0.155*[#   2]+0.155*[#   3]+0.155*[#   4]+0.155*[#   6]+0.155*[#   7]
          +0.155*[#   8]+0.031*[#   1]+0.031*[#   5]
    |psi|^2 = 0.993
==== e(   4) =     3.69847 eV ==== 
     psi = 0.163*[#   2]+0.163*[#   3]+0.163*[#   4]+0.163*[#   6]+0.163*[#   7]
          +0.163*[#   8]+0.006*[#   1]+0.006*[#   5]
    |psi|^2 = 0.990
==== e(   5) =     8.73815 eV ==== 
     psi = 0.114*[#   2]+0.114*[#   3]+0.114*[#   4]+0.114*[#   6]+0.114*[#   7]
          +0.114*[#   8]+0.086*[#   1]+0.086*[#   5]
    |psi|^2 = 0.856
==== e(   6) =     9.58724 eV ==== 
     psi = 0.073*[#   1]+0.073*[#   5]+0.057*[#   2]+0.057*[#   3]+0.057*[#   4]
          +0.057*[#   6]+0.057*[#   7]+0.057*[#   8]
    |psi|^2 = 0.489
==== e(   7) =    10.09005 eV ==== 
     psi = 0.105*[#   2]+0.105*[#   3]+0.105*[#   4]+0.105*[#   6]+0.105*[#   7]
          +0.105*[#   8]+0.102*[#   1]+0.102*[#   5]
    |psi|^2 = 0.834
==== e(   8) =    12.91469 eV ==== 
     psi = 0.114*[#   2]+0.114*[#   3]+0.114*[#   4]+0.114*[#   6]+0.114*[#   7]
          +0.114*[#   8]+0.014*[#   1]+0.014*[#   5]
    |psi|^2 = 0.713

 k =  -0.5892556510  0.3535533906  0.1178511302
==== e(   1) =    -2.64357 eV ==== 
     psi = 0.336*[#   1]+0.336*[#   5]+0.054*[#   2]+0.054*[#   3]+0.054*[#   4]
          +0.054*[#   6]+0.054*[#   7]+0.054*[#   8]
    |psi|^2 = 0.996
==== e(   2) =    -0.82430 eV ==== 
     psi = 0.230*[#   1]+0.230*[#   5]+0.089*[#   2]+0.089*[#   3]+0.089*[#   4]
          +0.089*[#   6]+0.089*[#   7]+0.089*[#   8]
    |psi|^2 = 0.993
==== e(   3) =     1.98959 eV ==== 
     psi = 0.155*[#   2]+0.155*[#   3]+0.155*[#   4]+0.155*[#   6]+0.155*[#   7]
          +0.155*[#   8]+0.033*[#   1]+0.033*[#   5]
    |psi|^2 = 0.994
==== e(   4) =     3.23494 eV ==== 
     psi = 0.164*[#   2]+0.164*[#   3]+0.164*[#   4]+0.164*[#   6]+0.164*[#   7]
          +0.164*[#   8]+0.003*[#   1]+0.003*[#   5]
    |psi|^2 = 0.991
==== e(   5) =     9.24132 eV ==== 
     psi = 0.106*[#   2]+0.106*[#   3]+0.106*[#   4]+0.106*[#   6]+0.106*[#   7]
          +0.106*[#   8]+0.016*[#   1]+0.016*[#   5]
    |psi|^2 = 0.666
==== e(   6) =     9.41990 eV ==== 
     psi = 0.136*[#   1]+0.136*[#   5]+0.090*[#   2]+0.090*[#   3]+0.090*[#   4]
          +0.090*[#   6]+0.090*[#   7]+0.090*[#   8]
    |psi|^2 = 0.812
==== e(   7) =    11.95056 eV ==== 
     psi = 0.045*[#   2]+0.045*[#   3]+0.045*[#   4]+0.045*[#   6]+0.045*[#   7]
          +0.045*[#   8]+0.041*[#   1]+0.041*[#   5]
    |psi|^2 = 0.353
==== e(   8) =    12.34472 eV ==== 
     psi = 0.106*[#   1]+0.106*[#   5]+0.080*[#   2]+0.080*[#   3]+0.080*[#   4]
          +0.080*[#   6]+0.080*[#   7]+0.080*[#   8]
    |psi|^2 = 0.692

 k =  -0.0000000000 -0.2357022604  0.7071067812
==== e(   1) =    -1.66745 eV ==== 
     psi = 0.297*[#   1]+0.297*[#   5]+0.067*[#   2]+0.067*[#   3]+0.067*[#   4]
          +0.067*[#   6]+0.067*[#   7]+0.067*[#   8]
    |psi|^2 = 0.995
==== e(   2) =    -1.66745 eV ==== 
     psi = 0.297*[#   1]+0.297*[#   5]+0.067*[#   2]+0.067*[#   3]+0.067*[#   4]
          +0.067*[#   6]+0.067*[#   7]+0.067*[#   8]
    |psi|^2 = 0.995
==== e(   3) =     2.35654 eV ==== 
     psi = 0.164*[#   2]+0.164*[#   3]+0.164*[#   4]+0.164*[#   6]+0.164*[#   7]
          +0.164*[#   8]+0.004*[#   1]+0.004*[#   5]
    |psi|^2 = 0.994
==== e(   4) =     2.35654 eV ==== 
     psi = 0.164*[#   2]+0.164*[#   3]+0.164*[#   4]+0.164*[#   6]+0.164*[#   7]
          +0.164*[#   8]+0.004*[#   1]+0.004*[#   5]
    |psi|^2 = 0.994
==== e(   5) =     8.62943 eV ==== 
     psi = 0.104*[#   1]+0.104*[#   5]+0.086*[#   2]+0.086*[#   3]+0.086*[#   4]
          +0.086*[#   6]+0.086*[#   7]+0.086*[#   8]
    |psi|^2 = 0.726
==== e(   6) =     8.62943 eV ==== 
     psi = 0.104*[#   1]+0.104*[#   5]+0.086*[#   2]+0.086*[#   3]+0.086*[#   4]
          +0.086*[#   6]+0.086*[#   7]+0.086*[#   8]
    |psi|^2 = 0.726
==== e(   7) =    12.59594 eV ==== 
     psi = 0.082*[#   2]+0.082*[#   3]+0.082*[#   4]+0.082*[#   6]+0.082*[#   7]
          +0.082*[#   8]+0.056*[#   1]+0.056*[#   5]
    |psi|^2 = 0.604
==== e(   8) =    12.59594 eV ==== 
     psi = 0.082*[#   2]+0.082*[#   3]+0.082*[#   4]+0.082*[#   6]+0.082*[#   7]
          +0.082*[#   8]+0.056*[#   1]+0.056*[#   5]
    |psi|^2 = 0.604

Lowdin Charges: 

     Atom #   1: total charge =   3.9661, s =  1.1687, 
     Atom #   1: total charge =   3.9661, p =  2.7974, pz=  0.9325, px=  0.9325, py=  0.9325, 
     Atom #   2: total charge =   3.9661, s =  1.1687, 
     Atom #   2: total charge =   3.9661, p =  2.7974, pz=  0.9325, px=  0.9325, py=  0.9325, 
     Spilling Parameter:   0.0085

     PROJWFC      :      0.73s CPU      0.76s WALL


   This run was terminated on:   0:17:46  12Dec2022            

=------------------------------------------------------------------------------=
   JOB DONE.
=------------------------------------------------------------------------------=
