
     Program PWSCF v.7.1 starts on 12Dec2022 at  0:17:35 
        Git branch: develop
        Last git commit: 9ddde6fa44e0fb1c7debb78532a4b581a6ef82fd
        Last git commit date: Fri Oct 28 07:34:35 2022 +0000
        Last git commit subject: Merge branch 'fix_hubbardocc' into 'develop'

     This program is part of the open-source Quantum ESPRESSO suite
     for quantum simulation of materials; please cite
         "P. Giannozzi et al., J. Phys.:Condens. Matter 21 395502 (2009);
         "P. Giannozzi et al., J. Phys.:Condens. Matter 29 465901 (2017);
         "P. Giannozzi et al., J. Chem. Phys. 152 154105 (2020);
          URL http://www.quantum-espresso.org", 
     in publications or presentations arising from this work. More details at
     http://www.quantum-espresso.org/quote

     Parallel version (MPI), running on     1 processors

     MPI processes distributed on     1 nodes
     0 MiB available memory on the printing compute node when the environment starts

     Waiting for input...
     Reading input from standard input
Warning: card &CELL ignored
Warning: card / ignored

     Current dimensions of program PWSCF are:
     Max number of different atomic species (ntypx) = 10
     Max number of k-points (npk) =  40000
     Max angular momentum in pseudopotentials (lmaxx) =  4
     Message from routine setup:
     using ibrav=0 with symmetry is DISCOURAGED, use correct ibrav instead

     Subspace diagonalization in iterative solution of the eigenvalue problem:
     a serial algorithm will be used


     G-vector sticks info
     --------------------
     sticks:   dense  smooth     PW     G-vecs:    dense   smooth      PW
     Sum         877     877    253                17261    17261    2741

     Using Slab Decomposition



     bravais-lattice index     =            0
     lattice parameter (alat)  =       7.3075  a.u.
     unit-cell volume          =     275.9279 (a.u.)^3
     number of atoms/cell      =            2
     number of atomic types    =            1
     number of electrons       =         8.00
     number of Kohn-Sham states=            4
     kinetic-energy cutoff     =      60.0000  Ry
     charge density cutoff     =     240.0000  Ry
     scf convergence threshold =      1.0E-06
     mixing beta               =       0.7000
     number of iterations used =            8  plain     mixing
     Exchange-correlation= PBESOL
                           (   1   4  10   8   0   0   0)

     celldm(1)=   7.307523  celldm(2)=   0.000000  celldm(3)=   0.000000
     celldm(4)=   0.000000  celldm(5)=   0.000000  celldm(6)=   0.000000

     crystal axes: (cart. coord. in units of alat)
               a(1) = (  -0.707107  -0.707107   0.000000 )  
               a(2) = (  -0.707107   0.000000  -0.707107 )  
               a(3) = (   0.000000  -0.707107  -0.707107 )  

     reciprocal axes: (cart. coord. in units 2 pi/alat)
               b(1) = ( -0.707107 -0.707107  0.707107 )  
               b(2) = ( -0.707107  0.707107 -0.707107 )  
               b(3) = (  0.707107 -0.707107 -0.707107 )  


     PseudoPot. # 1 for Si read from file:
     ../pseudo/Si.pbesol-n-rrkjus_psl.1.0.0.UPF
     MD5 check sum: c4212819de858c94c3a1644338846ac9
     Pseudo is Ultrasoft + core correction, Zval =  4.0
     Generated using "atomic" code by A. Dal Corso  v.6.0 svn rev. 13079
     Using radial grid of 1141 points,  6 beta functions with: 
                l(1) =   0
                l(2) =   0
                l(3) =   1
                l(4) =   1
                l(5) =   2
                l(6) =   2
     Q(r) pseudized with 0 coefficients 


     atomic species   valence    mass     pseudopotential
        Si             4.00    28.08550     Si( 1.00)

     48 Sym. Ops., with inversion, found (24 have fractional translation)



   Cartesian axes

     site n.     atom                  positions (alat units)
         1           Si  tau(   1) = (  -0.3535534  -0.3535534  -0.3535534  )
         2           Si  tau(   2) = (  -0.7071068  -0.7071068  -0.7071068  )

     number of k points=     8
                       cart. coord. in units 2pi/alat
        k(    1) = (   0.0000000   0.0000000   0.0000000), wk =   0.0312500
        k(    2) = (   0.1767767  -0.1767767  -0.1767767), wk =   0.2500000
        k(    3) = (  -0.3535534   0.3535534   0.3535534), wk =   0.1250000
        k(    4) = (   0.0000000   0.0000000  -0.3535534), wk =   0.1875000
        k(    5) = (  -0.5303301   0.5303301   0.1767767), wk =   0.7500000
        k(    6) = (  -0.3535534   0.3535534   0.0000000), wk =   0.3750000
        k(    7) = (   0.0000000   0.0000000   0.7071068), wk =   0.0937500
        k(    8) = (   0.0000000  -0.3535534   0.7071068), wk =   0.1875000

     Dense  grid:    17261 G-vectors     FFT dimensions: (  40,  40,  40)

     Estimated max dynamical RAM per process >      64.71 MB

     Initial potential from superposition of free atoms

     starting charge       7.9989, renormalised to       8.0000
     Starting wfcs are    8 randomized atomic wfcs

     total cpu time spent up to now is        1.1 secs

     Self-consistent Calculation

     iteration #  1     ecut=    60.00 Ry     beta= 0.70
     Davidson diagonalization with overlap
     ethr =  1.00E-02,  avg # of iterations =  2.0

     Threshold (ethr) on eigenvalues was too large:
     Diagonalizing with lowered threshold

     Davidson diagonalization with overlap
     ethr =  6.42E-04,  avg # of iterations =  1.8

     total cpu time spent up to now is        1.3 secs

     total energy              =     -22.66058531 Ry
     estimated scf accuracy    <       0.05635113 Ry

     iteration #  2     ecut=    60.00 Ry     beta= 0.70
     Davidson diagonalization with overlap
     ethr =  7.04E-04,  avg # of iterations =  1.0

     total cpu time spent up to now is        1.5 secs

     total energy              =     -22.66245080 Ry
     estimated scf accuracy    <       0.00273463 Ry

     iteration #  3     ecut=    60.00 Ry     beta= 0.70
     Davidson diagonalization with overlap
     ethr =  3.42E-05,  avg # of iterations =  3.1

     total cpu time spent up to now is        1.6 secs

     total energy              =     -22.66324878 Ry
     estimated scf accuracy    <       0.00013009 Ry

     iteration #  4     ecut=    60.00 Ry     beta= 0.70
     Davidson diagonalization with overlap
     ethr =  1.63E-06,  avg # of iterations =  3.5

     total cpu time spent up to now is        1.8 secs

     total energy              =     -22.66329160 Ry
     estimated scf accuracy    <       0.00003022 Ry

     iteration #  5     ecut=    60.00 Ry     beta= 0.70
     Davidson diagonalization with overlap
     ethr =  3.78E-07,  avg # of iterations =  2.6

     total cpu time spent up to now is        2.0 secs

     End of self-consistent calculation

          k = 0.0000 0.0000 0.0000 (  2109 PWs)   bands (ev):

    -5.8702   5.9868   5.9868   5.9868

          k = 0.1768-0.1768-0.1768 (  2160 PWs)   bands (ev):

    -5.0815   2.0636   5.2305   5.2305

          k =-0.3536 0.3536 0.3536 (  2138 PWs)   bands (ev):

    -3.5703  -0.9444   4.7962   4.7962

          k = 0.0000 0.0000-0.3536 (  2181 PWs)   bands (ev):

    -4.8031   2.4593   4.1081   4.1081

          k =-0.5303 0.5303 0.1768 (  2166 PWs)   bands (ev):

    -3.1893  -0.3667   2.4621   3.7968

          k =-0.3536 0.3536 0.0000 (  2151 PWs)   bands (ev):

    -3.8543   0.5243   2.2463   4.6672

          k = 0.0000 0.0000 0.7071 (  2200 PWs)   bands (ev):

    -1.7829  -1.7829   3.1556   3.1556

          k = 0.0000-0.3536 0.7071 (  2180 PWs)   bands (ev):

    -1.6211  -1.6211   2.1509   2.1509

     highest occupied level (ev):     5.9868

!    total energy              =     -22.66330017 Ry
     estimated scf accuracy    <       0.00000068 Ry

     The total energy is the sum of the following terms:
     one-electron contribution =       5.01778882 Ry
     hartree contribution      =       1.12196747 Ry
     xc contribution           =     -12.12307814 Ry
     ewald contribution        =     -16.67997832 Ry

     convergence has been achieved in   5 iterations

     Writing all to output data dir ./out/Si.save/

     init_run     :      0.85s CPU      0.87s WALL (       1 calls)
     electrons    :      0.89s CPU      0.91s WALL (       1 calls)

     Called by init_run:
     wfcinit      :      0.33s CPU      0.33s WALL (       1 calls)
     potinit      :      0.02s CPU      0.02s WALL (       1 calls)
     hinit0       :      0.48s CPU      0.48s WALL (       1 calls)

     Called by electrons:
     c_bands      :      0.53s CPU      0.53s WALL (       6 calls)
     sum_band     :      0.20s CPU      0.20s WALL (       6 calls)
     v_of_rho     :      0.11s CPU      0.12s WALL (       6 calls)
     newd         :      0.09s CPU      0.10s WALL (       6 calls)
     mix_rho      :      0.00s CPU      0.01s WALL (       6 calls)

     Called by c_bands:
     init_us_2    :      0.04s CPU      0.04s WALL (     104 calls)
     init_us_2:cp :      0.04s CPU      0.04s WALL (     104 calls)
     cegterg      :      0.43s CPU      0.43s WALL (      48 calls)

     Called by *egterg:
     cdiaghg      :      0.01s CPU      0.01s WALL (     152 calls)
     h_psi        :      0.68s CPU      0.69s WALL (     168 calls)
     s_psi        :      0.02s CPU      0.02s WALL (     168 calls)
     g_psi        :      0.00s CPU      0.00s WALL (     112 calls)

     Called by h_psi:
     h_psi:calbec :      0.02s CPU      0.03s WALL (     168 calls)
     vloc_psi     :      0.63s CPU      0.63s WALL (     168 calls)
     add_vuspsi   :      0.02s CPU      0.02s WALL (     168 calls)

     General routines
     calbec       :      0.03s CPU      0.03s WALL (     216 calls)
     fft          :      0.35s CPU      0.35s WALL (      67 calls)
     ffts         :      0.00s CPU      0.00s WALL (       6 calls)
     fftw         :      0.63s CPU      0.63s WALL (    1392 calls)

     Parallel routines

     PWSCF        :      1.90s CPU      1.98s WALL


   This run was terminated on:   0:17:37  12Dec2022            

=------------------------------------------------------------------------------=
   JOB DONE.
=------------------------------------------------------------------------------=
