calculator: qe
length_unit: au
nqpoint: 357    
npath: 7      
segment_nqpoint:
- 51
- 51
- 51
- 51
- 51
- 51
- 51
reciprocal_lattice:
- [  -0.09739751,   0.09739751,   0.09739751 ] # a*
- [   0.09739751,  -0.09739751,   0.09739751 ] # b*
- [   0.09739751,   0.09739751,  -0.09739751 ] # c*
natom: 2      
lattice:
- [     0.000000000000000,     5.133601678017133,     5.133601678017133 ] # a
- [     5.133601678017133,     0.000000000000000,     5.133601678017133 ] # b
- [     5.133601678017133,     5.133601678017133,     0.000000000000000 ] # c
points:
- symbol: Si # 1
  coordinates: [  0.750000000000000,  0.750000000000000,  0.750000000000000 ]
  mass: 28.085500
- symbol: Si # 2
  coordinates: [  0.500000000000000,  0.500000000000000,  0.500000000000000 ]
  mass: 28.085500

phonon:
- q-position: [    0.0000000,    0.0000000,    0.0000000 ]
  distance:    0.0000000
  band:
  - # 1
    frequency:   -0.0108804777
  - # 2
    frequency:   -0.0108804777
  - # 3
    frequency:   -0.0108804777
  - # 4
    frequency:   15.2736513537
  - # 5
    frequency:   15.2736513537
  - # 6
    frequency:   15.2736513537

- q-position: [    0.0100000,    0.0000000,    0.0100000 ]
  distance:    0.0019480
  band:
  - # 1
    frequency:    0.1786506966
  - # 2
    frequency:    0.1786506966
  - # 3
    frequency:    0.3236893380
  - # 4
    frequency:   15.2708641631
  - # 5
    frequency:   15.2708641631
  - # 6
    frequency:   15.2728503028

- q-position: [    0.0200000,    0.0000000,    0.0200000 ]
  distance:    0.0038959
  band:
  - # 1
    frequency:    0.3575241312
  - # 2
    frequency:    0.3575241312
  - # 3
    frequency:    0.6473487408
  - # 4
    frequency:   15.2625224935
  - # 5
    frequency:   15.2625224935
  - # 6
    frequency:   15.2704423221

- q-position: [    0.0300000,    0.0000000,    0.0300000 ]
  distance:    0.0058439
  band:
  - # 1
    frequency:    0.5357378773
  - # 2
    frequency:    0.5357378773
  - # 3
    frequency:    0.9703402173
  - # 4
    frequency:   15.2486859766
  - # 5
    frequency:   15.2486859766
  - # 6
    frequency:   15.2664129870

- q-position: [    0.0400000,    0.0000000,    0.0400000 ]
  distance:    0.0077918
  band:
  - # 1
    frequency:    0.7130960742
  - # 2
    frequency:    0.7130960742
  - # 3
    frequency:    1.2924092401
  - # 4
    frequency:   15.2294537452
  - # 5
    frequency:   15.2294537452
  - # 6
    frequency:   15.2607384567

- q-position: [    0.0500000,    0.0000000,    0.0500000 ]
  distance:    0.0097398
  band:
  - # 1
    frequency:    0.8893316974
  - # 2
    frequency:    0.8893316974
  - # 3
    frequency:    1.6132685627
  - # 4
    frequency:   15.2049640466
  - # 5
    frequency:   15.2049640466
  - # 6
    frequency:   15.2533857702

- q-position: [    0.0600000,    0.0000000,    0.0600000 ]
  distance:    0.0116877
  band:
  - # 1
    frequency:    1.0641604347
  - # 2
    frequency:    1.0641604347
  - # 3
    frequency:    1.9326299569
  - # 4
    frequency:   15.1753936861
  - # 5
    frequency:   15.1753936861
  - # 6
    frequency:   15.2443132540

- q-position: [    0.0700000,    0.0000000,    0.0700000 ]
  distance:    0.0136357
  band:
  - # 1
    frequency:    1.2372873132
  - # 2
    frequency:    1.2372873132
  - # 3
    frequency:    2.2502097820
  - # 4
    frequency:   15.1409572876
  - # 5
    frequency:   15.1409572876
  - # 6
    frequency:   15.2334710359

- q-position: [    0.0800000,    0.0000000,    0.0800000 ]
  distance:    0.0155836
  band:
  - # 1
    frequency:    1.4084076241
  - # 2
    frequency:    1.4084076241
  - # 3
    frequency:    2.5657312485
  - # 4
    frequency:   15.1019063498
  - # 5
    frequency:   15.1019063498
  - # 6
    frequency:   15.2208016546

- q-position: [    0.0900000,    0.0000000,    0.0900000 ]
  distance:    0.0175316
  band:
  - # 1
    frequency:    1.5772067908
  - # 2
    frequency:    1.5772067908
  - # 3
    frequency:    2.8789259080
  - # 4
    frequency:   15.0585280764
  - # 5
    frequency:   15.0585280764
  - # 6
    frequency:   15.2062407574

- q-position: [    0.1000000,    0.0000000,    0.1000000 ]
  distance:    0.0194795
  band:
  - # 1
    frequency:    1.7433601508
  - # 2
    frequency:    1.7433601508
  - # 3
    frequency:    3.1895348700
  - # 4
    frequency:   15.0111439491
  - # 5
    frequency:   15.0111439491
  - # 6
    frequency:   15.1897178736

- q-position: [    0.1100000,    0.0000000,    0.1100000 ]
  distance:    0.0214275
  band:
  - # 1
    frequency:    1.9065329521
  - # 2
    frequency:    1.9065329521
  - # 3
    frequency:    3.4973098758
  - # 4
    frequency:   14.9601080121
  - # 5
    frequency:   14.9601080121
  - # 6
    frequency:   15.1711572525

- q-position: [    0.1200000,    0.0000000,    0.1200000 ]
  distance:    0.0233754
  band:
  - # 1
    frequency:    2.0663807043
  - # 2
    frequency:    2.0663807043
  - # 3
    frequency:    3.8020142698
  - # 4
    frequency:   14.9058048281
  - # 5
    frequency:   14.9058048281
  - # 6
    frequency:   15.1504787520

- q-position: [    0.1300000,    0.0000000,    0.1300000 ]
  distance:    0.0253234
  band:
  - # 1
    frequency:    2.2225499701
  - # 2
    frequency:    2.2225499701
  - # 3
    frequency:    4.1034238786
  - # 4
    frequency:   14.8486470649
  - # 5
    frequency:   14.8486470649
  - # 6
    frequency:   15.1275987658

- q-position: [    0.1400000,    0.0000000,    0.1400000 ]
  distance:    0.0272713
  band:
  - # 1
    frequency:    2.3746796681
  - # 2
    frequency:    2.3746796681
  - # 3
    frequency:    4.4013277999
  - # 4
    frequency:   14.7890726689
  - # 5
    frequency:   14.7890726689
  - # 6
    frequency:   15.1024311730

- q-position: [    0.1500000,    0.0000000,    0.1500000 ]
  distance:    0.0292193
  band:
  - # 1
    frequency:    2.5224029488
  - # 2
    frequency:    2.5224029488
  - # 3
    frequency:    4.6955290980
  - # 4
    frequency:   14.7275415799
  - # 5
    frequency:   14.7275415799
  - # 6
    frequency:   15.0748882987

- q-position: [    0.1600000,    0.0000000,    0.1600000 ]
  distance:    0.0311672
  band:
  - # 1
    frequency:    2.6653496959
  - # 2
    frequency:    2.6653496959
  - # 3
    frequency:    4.9858454039
  - # 4
    frequency:   14.6645319447
  - # 5
    frequency:   14.6645319447
  - # 6
    frequency:   15.0448818692

- q-position: [    0.1700000,    0.0000000,    0.1700000 ]
  distance:    0.0331152
  band:
  - # 1
    frequency:    2.8031496985
  - # 2
    frequency:    2.8031496985
  - # 3
    frequency:    5.2721094145
  - # 4
    frequency:   14.6005357948
  - # 5
    frequency:   14.6005357948
  - # 6
    frequency:   15.0123239498

- q-position: [    0.1800000,    0.0000000,    0.1800000 ]
  distance:    0.0350631
  band:
  - # 1
    frequency:    2.9354365237
  - # 2
    frequency:    2.9354365237
  - # 3
    frequency:    5.5541692887
  - # 4
    frequency:   14.5360541605
  - # 5
    frequency:   14.5360541605
  - # 6
    frequency:   14.9771278506

- q-position: [    0.1900000,    0.0000000,    0.1900000 ]
  distance:    0.0370111
  band:
  - # 1
    frequency:    3.0618521018
  - # 2
    frequency:    3.0618521018
  - # 3
    frequency:    5.8318889372
  - # 4
    frequency:   14.4715916153
  - # 5
    frequency:   14.4715916153
  - # 6
    frequency:   14.9392089888

- q-position: [    0.2000000,    0.0000000,    0.2000000 ]
  distance:    0.0389590
  band:
  - # 1
    frequency:    3.1820520091
  - # 2
    frequency:    3.1820520091
  - # 3
    frequency:    6.1051482019
  - # 4
    frequency:   14.4076502630
  - # 5
    frequency:   14.4076502630
  - # 6
    frequency:   14.8984856959

- q-position: [    0.2100000,    0.0000000,    0.2100000 ]
  distance:    0.0409070
  band:
  - # 1
    frequency:    3.2957114018
  - # 2
    frequency:    3.2957114018
  - # 3
    frequency:    6.3738429256
  - # 4
    frequency:   14.3447232158
  - # 5
    frequency:   14.3447232158
  - # 6
    frequency:   14.8548799579

- q-position: [    0.2200000,    0.0000000,    0.2200000 ]
  distance:    0.0428549
  band:
  - # 1
    frequency:    3.4025315150
  - # 2
    frequency:    3.4025315150
  - # 3
    frequency:    6.6378849088
  - # 4
    frequency:   14.2832876416
  - # 5
    frequency:   14.2832876416
  - # 6
    frequency:   14.8083180798

- q-position: [    0.2300000,    0.0000000,    0.2300000 ]
  distance:    0.0448029
  band:
  - # 1
    frequency:    3.5022465943
  - # 2
    frequency:    3.5022465943
  - # 3
    frequency:    6.8972017547
  - # 4
    frequency:   14.2237975099
  - # 5
    frequency:   14.2237975099
  - # 6
    frequency:   14.7587312667

- q-position: [    0.2400000,    0.0000000,    0.2400000 ]
  distance:    0.0467508
  band:
  - # 1
    frequency:    3.5946310835
  - # 2
    frequency:    3.5946310835
  - # 3
    frequency:    7.1517366031
  - # 4
    frequency:   14.1666762012
  - # 5
    frequency:   14.1666762012
  - # 6
    frequency:   14.7060561125

- q-position: [    0.2500000,    0.0000000,    0.2500000 ]
  distance:    0.0486988
  band:
  - # 1
    frequency:    3.6795068376
  - # 2
    frequency:    3.6795068376
  - # 3
    frequency:    7.4014477542
  - # 4
    frequency:   14.1123091978
  - # 5
    frequency:   14.1123091978
  - # 6
    frequency:   14.6502349926

- q-position: [    0.2600000,    0.0000000,    0.2600000 ]
  distance:    0.0506467
  band:
  - # 1
    frequency:    3.7567500962
  - # 2
    frequency:    3.7567500962
  - # 3
    frequency:    7.6463081867
  - # 4
    frequency:   14.0610371065
  - # 5
    frequency:   14.0610371065
  - # 6
    frequency:   14.5912163545

- q-position: [    0.2700000,    0.0000000,    0.2700000 ]
  distance:    0.0525947
  band:
  - # 1
    frequency:    3.8262979131
  - # 2
    frequency:    3.8262979131
  - # 3
    frequency:    7.8863049722
  - # 4
    frequency:   14.0131492948
  - # 5
    frequency:   14.0131492948
  - # 6
    frequency:   14.5289549053

- q-position: [    0.2800000,    0.0000000,    0.2800000 ]
  distance:    0.0545426
  band:
  - # 1
    frequency:    3.8881537256
  - # 2
    frequency:    3.8881537256
  - # 3
    frequency:    8.1214385921
  - # 4
    frequency:   13.9688784326
  - # 5
    frequency:   13.9688784326
  - # 6
    frequency:   14.4634116928

- q-position: [    0.2900000,    0.0000000,    0.2900000 ]
  distance:    0.0564906
  band:
  - # 1
    frequency:    3.9423917523
  - # 2
    frequency:    3.9423917523
  - # 3
    frequency:    8.3517221637
  - # 4
    frequency:   13.9283962209
  - # 5
    frequency:   13.9283962209
  - # 6
    frequency:   14.3945540815

- q-position: [    0.3000000,    0.0000000,    0.3000000 ]
  distance:    0.0584385
  band:
  - # 1
    frequency:    3.9891599317
  - # 2
    frequency:    3.9891599317
  - # 3
    frequency:    8.5771805799
  - # 4
    frequency:   13.8918105581
  - # 5
    frequency:   13.8918105581
  - # 6
    frequency:   14.3223556246

- q-position: [    0.3100000,    0.0000000,    0.3100000 ]
  distance:    0.0603865
  band:
  - # 1
    frequency:    4.0286811681
  - # 2
    frequency:    4.0286811681
  - # 3
    frequency:    8.7978495744
  - # 4
    frequency:   13.8591643364
  - # 5
    frequency:   13.8591643364
  - # 6
    frequency:   14.2467958349

- q-position: [    0.3200000,    0.0000000,    0.3200000 ]
  distance:    0.0623344
  band:
  - # 1
    frequency:    4.0612527198
  - # 2
    frequency:    4.0612527198
  - # 3
    frequency:    9.0137747186
  - # 4
    frequency:   13.8304359854
  - # 5
    frequency:   13.8304359854
  - # 6
    frequency:   14.1678598590

- q-position: [    0.3300000,    0.0000000,    0.3300000 ]
  distance:    0.0642824
  band:
  - # 1
    frequency:    4.0872436481
  - # 2
    frequency:    4.0872436481
  - # 3
    frequency:    9.2250103618
  - # 4
    frequency:   13.8055417897
  - # 5
    frequency:   13.8055417897
  - # 6
    frequency:   14.0855380597

- q-position: [    0.3400000,    0.0000000,    0.3400000 ]
  distance:    0.0662303
  band:
  - # 1
    frequency:    4.1070903361
  - # 2
    frequency:    4.1070903361
  - # 3
    frequency:    9.4316185254
  - # 4
    frequency:   13.7843399150
  - # 5
    frequency:   13.7843399150
  - # 6
    frequency:   13.9998255151

- q-position: [    0.3500000,    0.0000000,    0.3500000 ]
  distance:    0.0681783
  band:
  - # 1
    frequency:    4.1212901734
  - # 2
    frequency:    4.1212901734
  - # 3
    frequency:    9.6336677628
  - # 4
    frequency:   13.7666359827
  - # 5
    frequency:   13.7666359827
  - # 6
    frequency:   13.9107214398

- q-position: [    0.3600000,    0.0000000,    0.3600000 ]
  distance:    0.0701262
  band:
  - # 1
    frequency:    4.1303935757
  - # 2
    frequency:    4.1303935757
  - # 3
    frequency:    9.8312319977
  - # 4
    frequency:   13.7521899623
  - # 5
    frequency:   13.7521899623
  - # 6
    frequency:   13.8182285402

- q-position: [    0.3700000,    0.0000000,    0.3700000 ]
  distance:    0.0720742
  band:
  - # 1
    frequency:    4.1349945701
  - # 2
    frequency:    4.1349945701
  - # 3
    frequency:   10.0243893529
  - # 4
    frequency:   13.7223523117
  - # 5
    frequency:   13.7407240904
  - # 6
    frequency:   13.7407240904

- q-position: [    0.3800000,    0.0000000,    0.3800000 ]
  distance:    0.0740221
  band:
  - # 1
    frequency:    4.1357202098
  - # 2
    frequency:    4.1357202098
  - # 3
    frequency:   10.2132209837
  - # 4
    frequency:   13.6231002902
  - # 5
    frequency:   13.7319314957
  - # 6
    frequency:   13.7319314957

- q-position: [    0.3900000,    0.0000000,    0.3900000 ]
  distance:    0.0759701
  band:
  - # 1
    frequency:    4.1332191051
  - # 2
    frequency:    4.1332191051
  - # 3
    frequency:   10.3978099287
  - # 4
    frequency:   13.5204812685
  - # 5
    frequency:   13.7254852049
  - # 6
    frequency:   13.7254852049

- q-position: [    0.4000000,    0.0000000,    0.4000000 ]
  distance:    0.0779180
  band:
  - # 1
    frequency:    4.1281493534
  - # 2
    frequency:    4.1281493534
  - # 3
    frequency:   10.5782399917
  - # 4
    frequency:   13.4145044916
  - # 5
    frequency:   13.7210472173
  - # 6
    frequency:   13.7210472173

- q-position: [    0.4100000,    0.0000000,    0.4100000 ]
  distance:    0.0798660
  band:
  - # 1
    frequency:    4.1211661482
  - # 2
    frequency:    4.1211661482
  - # 3
    frequency:   10.7545946668
  - # 4
    frequency:   13.3051788412
  - # 5
    frequency:   13.7182773739
  - # 6
    frequency:   13.7182773739

- q-position: [    0.4200000,    0.0000000,    0.4200000 ]
  distance:    0.0818139
  band:
  - # 1
    frequency:    4.1129093242
  - # 2
    frequency:    4.1129093242
  - # 3
    frequency:   10.9269561206
  - # 4
    frequency:   13.1925120254
  - # 5
    frequency:   13.7168417894
  - # 6
    frequency:   13.7168417894

- q-position: [    0.4300000,    0.0000000,    0.4300000 ]
  distance:    0.0837619
  band:
  - # 1
    frequency:    4.1039910885
  - # 2
    frequency:    4.1039910885
  - # 3
    frequency:   11.0954042426
  - # 4
    frequency:   13.0765097843
  - # 5
    frequency:   13.7164206708
  - # 6
    frequency:   13.7164206708

- q-position: [    0.4400000,    0.0000000,    0.4400000 ]
  distance:    0.0857098
  band:
  - # 1
    frequency:    4.0949841699
  - # 2
    frequency:    4.0949841699
  - # 3
    frequency:   11.2600157744
  - # 4
    frequency:   12.9571751263
  - # 5
    frequency:   13.7167153923
  - # 6
    frequency:   13.7167153923

- q-position: [    0.4500000,    0.0000000,    0.4500000 ]
  distance:    0.0876578
  band:
  - # 1
    frequency:    4.0864106168
  - # 2
    frequency:    4.0864106168
  - # 3
    frequency:   11.4208635289
  - # 4
    frequency:   12.8345076073
  - # 5
    frequency:   13.7174547495
  - # 6
    frequency:   13.7174547495

- q-position: [    0.4600000,    0.0000000,    0.4600000 ]
  distance:    0.0896057
  band:
  - # 1
    frequency:    4.0787314675
  - # 2
    frequency:    4.0787314675
  - # 3
    frequency:   11.5780157075
  - # 4
    frequency:   12.7085026652
  - # 5
    frequency:   13.7184003487
  - # 6
    frequency:   13.7184003487

- q-position: [    0.4700000,    0.0000000,    0.4700000 ]
  distance:    0.0915537
  band:
  - # 1
    frequency:    4.0723375160
  - # 2
    frequency:    4.0723375160
  - # 3
    frequency:   11.7315353225
  - # 4
    frequency:   12.5791510224
  - # 5
    frequency:   13.7193511195
  - # 6
    frequency:   13.7193511195

- q-position: [    0.4800000,    0.0000000,    0.4800000 ]
  distance:    0.0935016
  band:
  - # 1
    frequency:    4.0675413901
  - # 2
    frequency:    4.0675413901
  - # 3
    frequency:   11.8814797307
  - # 4
    frequency:   12.4464381658
  - # 5
    frequency:   13.7201469626
  - # 6
    frequency:   13.7201469626

- q-position: [    0.4900000,    0.0000000,    0.4900000 ]
  distance:    0.0954496
  band:
  - # 1
    frequency:    4.0645711427
  - # 2
    frequency:    4.0645711427
  - # 3
    frequency:   12.0279002830
  - # 4
    frequency:   12.3103439156
  - # 5
    frequency:   13.7206715488
  - # 6
    frequency:   13.7206715488

- q-position: [    0.5000000,    0.0000000,    0.5000000 ]
  distance:    0.0973975
  band:
  - # 1
    frequency:    4.0635655343
  - # 2
    frequency:    4.0635655343
  - # 3
    frequency:   12.1708420915
  - # 4
    frequency:   12.1708420915
  - # 5
    frequency:   13.7208542967
  - # 6
    frequency:   13.7208542967

- q-position: [    0.5000000,    0.0000000,    0.5000000 ]
  distance:    0.0973975
  band:
  - # 1
    frequency:    4.0635655343
  - # 2
    frequency:    4.0635655343
  - # 3
    frequency:   12.1708420915
  - # 4
    frequency:   12.1708420915
  - # 5
    frequency:   13.7208542967
  - # 6
    frequency:   13.7208542967

- q-position: [    0.5025000,    0.0050000,    0.5025000 ]
  distance:    0.0980862
  band:
  - # 1
    frequency:    4.0636674117
  - # 2
    frequency:    4.0650576725
  - # 3
    frequency:   12.1699740932
  - # 4
    frequency:   12.1701177087
  - # 5
    frequency:   13.7208098146
  - # 6
    frequency:   13.7212482264

- q-position: [    0.5050000,    0.0100000,    0.5050000 ]
  distance:    0.0987749
  band:
  - # 1
    frequency:    4.0639727839
  - # 2
    frequency:    4.0695287892
  - # 3
    frequency:   12.1673735467
  - # 4
    frequency:   12.1679459378
  - # 5
    frequency:   13.7206765263
  - # 6
    frequency:   13.7224270912

- q-position: [    0.5075000,    0.0150000,    0.5075000 ]
  distance:    0.0994636
  band:
  - # 1
    frequency:    4.0644808723
  - # 2
    frequency:    4.0769630464
  - # 3
    frequency:   12.1630507181
  - # 4
    frequency:   12.1643309114
  - # 5
    frequency:   13.7204549052
  - # 6
    frequency:   13.7243821945

- q-position: [    0.5100000,    0.0200000,    0.5100000 ]
  distance:    0.1001523
  band:
  - # 1
    frequency:    4.0651903816
  - # 2
    frequency:    4.0873342301
  - # 3
    frequency:   12.1570224609
  - # 4
    frequency:   12.1592795183
  - # 5
    frequency:   13.7201457400
  - # 6
    frequency:   13.7270992938

- q-position: [    0.5125000,    0.0250000,    0.5125000 ]
  distance:    0.1008410
  band:
  - # 1
    frequency:    4.0660995036
  - # 2
    frequency:    4.1006060199
  - # 3
    frequency:   12.1493118449
  - # 4
    frequency:   12.1528014061
  - # 5
    frequency:   13.7197501332
  - # 6
    frequency:   13.7305589627

- q-position: [    0.5150000,    0.0300000,    0.5150000 ]
  distance:    0.1015297
  band:
  - # 1
    frequency:    4.0672059232
  - # 2
    frequency:    4.1167323545
  - # 3
    frequency:   12.1399476663
  - # 4
    frequency:   12.1449089838
  - # 5
    frequency:   13.7192695006
  - # 6
    frequency:   13.7347370701

- q-position: [    0.5175000,    0.0350000,    0.5175000 ]
  distance:    0.1022184
  band:
  - # 1
    frequency:    4.0685068248
  - # 2
    frequency:    4.1356578845
  - # 3
    frequency:   12.1289638612
  - # 4
    frequency:   12.1356174262
  - # 5
    frequency:   13.7187055690
  - # 6
    frequency:   13.7396053518

- q-position: [    0.5200000,    0.0400000,    0.5200000 ]
  distance:    0.1029071
  band:
  - # 1
    frequency:    4.0699989008
  - # 2
    frequency:    4.1573184987
  - # 3
    frequency:   12.1163988532
  - # 4
    frequency:   12.1249446779
  - # 5
    frequency:   13.7180603746
  - # 6
    frequency:   13.7451320448

- q-position: [    0.5225000,    0.0450000,    0.5225000 ]
  distance:    0.1035958
  band:
  - # 1
    frequency:    4.0716783613
  - # 2
    frequency:    4.1816419122
  - # 3
    frequency:   12.1022948615
  - # 4
    frequency:   12.1129114600
  - # 5
    frequency:   13.7173362607
  - # 6
    frequency:   13.7512825590

- q-position: [    0.5250000,    0.0500000,    0.5250000 ]
  distance:    0.1042845
  band:
  - # 1
    frequency:    4.0735409458
  - # 2
    frequency:    4.2085482993
  - # 3
    frequency:   12.0866971981
  - # 4
    frequency:   12.0995412761
  - # 5
    frequency:   13.7165358745
  - # 6
    frequency:   13.7580201554

- q-position: [    0.5275000,    0.0550000,    0.5275000 ]
  distance:    0.1049733
  band:
  - # 1
    frequency:    4.0755819347
  - # 2
    frequency:    4.2379509590
  - # 3
    frequency:   12.0696535780
  - # 4
    frequency:   12.0848604203
  - # 5
    frequency:   13.7156621646
  - # 6
    frequency:   13.7653066095

- q-position: [    0.5300000,    0.0600000,    0.5300000 ]
  distance:    0.1056620
  band:
  - # 1
    frequency:    4.0777961639
  - # 2
    frequency:    4.2697569962
  - # 3
    frequency:   12.0512134621
  - # 4
    frequency:   12.0688979861
  - # 5
    frequency:   13.7147183772
  - # 6
    frequency:   13.7731028385

- q-position: [    0.5325000,    0.0650000,    0.5325000 ]
  distance:    0.1063507
  band:
  - # 1
    frequency:    4.0801780389
  - # 2
    frequency:    4.3038680060
  - # 3
    frequency:   12.0314274491
  - # 4
    frequency:   12.0516858755
  - # 5
    frequency:   13.7137080525
  - # 6
    frequency:   13.7813694767

- q-position: [    0.5350000,    0.0700000,    0.5350000 ]
  distance:    0.1070394
  band:
  - # 1
    frequency:    4.0827215513
  - # 2
    frequency:    4.3401807486
  - # 3
    frequency:   12.0103467270
  - # 4
    frequency:   12.0332588107
  - # 5
    frequency:   13.7126350201
  - # 6
    frequency:   13.7900673893

- q-position: [    0.5375000,    0.0750000,    0.5375000 ]
  distance:    0.1077281
  band:
  - # 1
    frequency:    4.0854202954
  - # 2
    frequency:    4.3785878028
  - # 3
    frequency:   11.9880225895
  - # 4
    frequency:   12.0136543450
  - # 5
    frequency:   13.7115033951
  - # 6
    frequency:   13.7991581178

- q-position: [    0.5400000,    0.0800000,    0.5400000 ]
  distance:    0.1084168
  band:
  - # 1
    frequency:    4.0882674860
  - # 2
    frequency:    4.4189781892
  - # 3
    frequency:   11.9645060210
  - # 4
    frequency:   11.9929128760
  - # 5
    frequency:   13.7103175722
  - # 6
    frequency:   13.8086042551

- q-position: [    0.5425000,    0.0850000,    0.5425000 ]
  distance:    0.1091055
  band:
  - # 1
    frequency:    4.0912559774
  - # 2
    frequency:    4.4612379553
  - # 3
    frequency:   11.9398473486
  - # 4
    frequency:   11.9710776590
  - # 5
    frequency:   13.7090822214
  - # 6
    frequency:   13.8183697511

- q-position: [    0.5450000,    0.0900000,    0.5450000 ]
  distance:    0.1097942
  band:
  - # 1
    frequency:    4.0943782825
  - # 2
    frequency:    4.5052507162
  - # 3
    frequency:   11.9140959577
  - # 4
    frequency:   11.9481948214
  - # 5
    frequency:   13.7078022813
  - # 6
    frequency:   13.8284201522

- q-position: [    0.5475000,    0.0950000,    0.5475000 ]
  distance:    0.1104829
  band:
  - # 1
    frequency:    4.0976265927
  - # 2
    frequency:    4.5508981474
  - # 3
    frequency:   11.8873000670
  - # 4
    frequency:   11.9243133780
  - # 5
    frequency:   13.7064829538
  - # 6
    frequency:   13.8387227804

- q-position: [    0.5500000,    0.1000000,    0.5500000 ]
  distance:    0.1111716
  band:
  - # 1
    frequency:    4.1009927991
  - # 2
    frequency:    4.5980604264
  - # 3
    frequency:   11.8595065553
  - # 4
    frequency:   11.8994852460
  - # 5
    frequency:   13.7051296969
  - # 6
    frequency:   13.8492468575

- q-position: [    0.5525000,    0.1050000,    0.5525000 ]
  distance:    0.1118603
  band:
  - # 1
    frequency:    4.1044685129
  - # 2
    frequency:    4.6466166220
  - # 3
    frequency:   11.8307608361
  - # 4
    frequency:   11.8737652609
  - # 5
    frequency:   13.7037482184
  - # 6
    frequency:   13.8599635807

- q-position: [    0.5550000,    0.1100000,    0.5550000 ]
  distance:    0.1125490
  band:
  - # 1
    frequency:    4.1080450871
  - # 2
    frequency:    4.6964450328
  - # 3
    frequency:   11.8011067706
  - # 4
    frequency:   11.8472111916
  - # 5
    frequency:   13.7023444681
  - # 6
    frequency:   13.8708461581

- q-position: [    0.5575000,    0.1150000,    0.5575000 ]
  distance:    0.1132377
  band:
  - # 1
    frequency:    4.1117136379
  - # 2
    frequency:    4.7474234743
  - # 3
    frequency:   11.7705866145
  - # 4
    frequency:   11.8198837553
  - # 5
    frequency:   13.7009246305
  - # 6
    frequency:   13.8818698088

- q-position: [    0.5600000,    0.1200000,    0.5600000 ]
  distance:    0.1139264
  band:
  - # 1
    frequency:    4.1154650670
  - # 2
    frequency:    4.7994295186
  - # 3
    frequency:   11.7392409931
  - # 4
    frequency:   11.7918466304
  - # 5
    frequency:   13.6994951165
  - # 6
    frequency:   13.8930117346

- q-position: [    0.5625000,    0.1250000,    0.5625000 ]
  distance:    0.1146151
  band:
  - # 1
    frequency:    4.1192900828
  - # 2
    frequency:    4.8523406893
  - # 3
    frequency:   11.7071088967
  - # 4
    frequency:   11.7631664681
  - # 5
    frequency:   13.6980625550
  - # 6
    frequency:   13.9042510685

- q-position: [    0.5650000,    0.1300000,    0.5650000 ]
  distance:    0.1153038
  band:
  - # 1
    frequency:    4.1231792230
  - # 2
    frequency:    4.9060346149
  - # 3
    frequency:   11.6742276954
  - # 4
    frequency:   11.7339129005
  - # 5
    frequency:   13.6966337840
  - # 6
    frequency:   13.9155688059

- q-position: [    0.5675000,    0.1350000,    0.5675000 ]
  distance:    0.1159925
  band:
  - # 1
    frequency:    4.1271228757
  - # 2
    frequency:    4.9603891454
  - # 3
    frequency:   11.6406331655
  - # 4
    frequency:   11.7041585450
  - # 5
    frequency:   13.6952158413
  - # 6
    frequency:   13.9269477206

- q-position: [    0.5700000,    0.1400000,    0.5700000 ]
  distance:    0.1166812
  band:
  - # 1
    frequency:    4.1311113012
  - # 2
    frequency:    5.0152824373
  - # 3
    frequency:   11.6063595268
  - # 4
    frequency:   11.6739790030
  - # 5
    frequency:   13.6938159549
  - # 6
    frequency:   13.9383722721

- q-position: [    0.5725000,    0.1450000,    0.5725000 ]
  distance:    0.1173699
  band:
  - # 1
    frequency:    4.1351346535
  - # 2
    frequency:    5.0705930107
  - # 3
    frequency:   11.5714394867
  - # 4
    frequency:   11.6434528520
  - # 5
    frequency:   13.6924415331
  - # 6
    frequency:   13.9498285049

- q-position: [    0.5750000,    0.1500000,    0.5750000 ]
  distance:    0.1180586
  band:
  - # 1
    frequency:    4.1391830011
  - # 2
    frequency:    5.1261997852
  - # 3
    frequency:   11.5359042890
  - # 4
    frequency:   11.6126616286
  - # 5
    frequency:   13.6911001536
  - # 6
    frequency:   13.9613039433

- q-position: [    0.5775000,    0.1550000,    0.5775000 ]
  distance:    0.1187473
  band:
  - # 1
    frequency:    4.1432463473
  - # 2
    frequency:    5.1819820989
  - # 3
    frequency:   11.4997837649
  - # 4
    frequency:   11.5816898008
  - # 5
    frequency:   13.6897995534
  - # 6
    frequency:   13.9727874838

- q-position: [    0.5800000,    0.1600000,    0.5800000 ]
  distance:    0.1194360
  band:
  - # 1
    frequency:    4.1473146506
  - # 2
    frequency:    5.2378197173
  - # 3
    frequency:   11.4631063864
  - # 4
    frequency:   11.5506247267
  - # 5
    frequency:   13.6885476169
  - # 6
    frequency:   13.9842692875

- q-position: [    0.5825000,    0.1650000,    0.5825000 ]
  distance:    0.1201248
  band:
  - # 1
    frequency:    4.1513778438
  - # 2
    frequency:    5.2935928367
  - # 3
    frequency:   11.4258993192
  - # 4
    frequency:   11.5195565970
  - # 5
    frequency:   13.6873523648
  - # 6
    frequency:   13.9957406715

- q-position: [    0.5850000,    0.1700000,    0.5850000 ]
  distance:    0.1208135
  band:
  - # 1
    frequency:    4.1554258532
  - # 2
    frequency:    5.3491820891
  - # 3
    frequency:   11.3881884749
  - # 4
    frequency:   11.4885783580
  - # 5
    frequency:   13.6862219419
  - # 6
    frequency:   14.0071940034

- q-position: [    0.5875000,    0.1750000,    0.5875000 ]
  distance:    0.1215022
  band:
  - # 1
    frequency:    4.1594486166
  - # 2
    frequency:    5.4044685546
  - # 3
    frequency:   11.3499985625
  - # 4
    frequency:   11.4577856110
  - # 5
    frequency:   13.6851646051
  - # 6
    frequency:   14.0186225976

- q-position: [    0.5900000,    0.1800000,    0.5900000 ]
  distance:    0.1221909
  band:
  - # 1
    frequency:    4.1634361008
  - # 2
    frequency:    5.4593337871
  - # 3
    frequency:   11.3113531375
  - # 4
    frequency:   11.4272764855
  - # 5
    frequency:   13.6841887107
  - # 6
    frequency:   14.0300206143

- q-position: [    0.5925000,    0.1850000,    0.5925000 ]
  distance:    0.1228796
  band:
  - # 1
    frequency:    4.1673783183
  - # 2
    frequency:    5.5136598607
  - # 3
    frequency:   11.2722746497
  - # 4
    frequency:   11.3971514802
  - # 5
    frequency:   13.6833027012
  - # 6
    frequency:   14.0413829633

- q-position: [    0.5950000,    0.1900000,    0.5950000 ]
  distance:    0.1235683
  band:
  - # 1