64   
1    

1    
  0.0100000000000000   0.0000000000000000   0.0000000000000000
  -0.0027235698   -0.0000000000   -0.0000000000
   0.0000070802   -0.0000000000   -0.0000000000
   0.0000066502   -0.0000000000   -0.0000000000
   0.0000025602   -0.0000000000   -0.0000000000
   0.0000066502   -0.0000000000   -0.0000000000
   0.0000025602   -0.0000000000   -0.0000000000
  -0.0000834498   -0.0000000000   -0.0000000000
   0.0000051302   -0.0000000000   -0.0000000000
  -0.0000147298   -0.0000055300   -0.0000064300
   0.0000087902   -0.0000054000   -0.0000036500
   0.0006603302   -0.0004642800   -0.0004642800
   0.0000010202   -0.0000058400   -0.0000058400
   0.0000385502   -0.0000061400   -0.0000061400
  -0.0000005798   -0.0000058300   -0.0000058300
  -0.0000147298   -0.0000064300   -0.0000055300
   0.0000087902   -0.0000036500   -0.0000054000
  -0.0000914498    0.0000186900   -0.0000186900
   0.0000034102    0.0000007200   -0.0000007200
  -0.0000909798    0.0000186500    0.0000186500
   0.0000016402    0.0000030700    0.0000030700
  -0.0000909798   -0.0000186500   -0.0000186500
   0.0000016402   -0.0000030700   -0.0000030700
  -0.0000914498   -0.0000186900    0.0000186900
   0.0000034102   -0.0000007200    0.0000007200
   0.0006603302    0.0004642800    0.0004642800
   0.0000010202    0.0000058400    0.0000058400
  -0.0000147298    0.0000055300    0.0000064300
   0.0000087902    0.0000054000    0.0000036500
  -0.0000147298    0.0000064300    0.0000055300
   0.0000087902    0.0000036500    0.0000054000
   0.0000385502    0.0000061400    0.0000061400
  -0.0000005798    0.0000058300    0.0000058300
   0.0000412302   -0.0000185400    0.0000369700
   0.0000360302   -0.0000187000   -0.0000385400
   0.0000111502   -0.0000020700   -0.0000104900
   0.0000046802   -0.0000016300    0.0000139100
   0.0000412302    0.0000185400   -0.0000369700
   0.0000360302    0.0000187000    0.0000385400
   0.0000111502    0.0000020700    0.0000104900
   0.0000046802    0.0000016300   -0.0000139100
  -0.0000093498    0.0000071800   -0.0000092500
   0.0000042902    0.0000044300   -0.0000065300
   0.0006651002    0.0004683800   -0.0004683800
  -0.0000014498    0.0000077600   -0.0000077600
   0.0000422102    0.0000036100   -0.0000036100
  -0.0000037898    0.0000053000   -0.0000053000
  -0.0000093498    0.0000092500   -0.0000071800
   0.0000042902    0.0000065300   -0.0000044300
   0.0000412302   -0.0000369700    0.0000185400
   0.0000360302    0.0000385400    0.0000187000
   0.0000412302    0.0000369700   -0.0000185400
   0.0000360302   -0.0000385400   -0.0000187000
   0.0000111502    0.0000104900    0.0000020700
   0.0000046802   -0.0000139100    0.0000016300
   0.0000111502   -0.0000104900   -0.0000020700
   0.0000046802    0.0000139100   -0.0000016300
   0.0006651002   -0.0004683800    0.0004683800
  -0.0000014498   -0.0000077600    0.0000077600
  -0.0000093498   -0.0000071800    0.0000092500
   0.0000042902   -0.0000044300    0.0000065300
  -0.0000093498   -0.0000092500    0.0000071800
   0.0000042902   -0.0000065300    0.0000044300
   0.0000422102   -0.0000036100    0.0000036100
  -0.0000037898   -0.0000053000    0.0000053000
