
     Program PHONON v.6.5 starts on 24Dec2022 at 17: 3:30 

     This program is part of the open-source Quantum ESPRESSO suite
     for quantum simulation of materials; please cite
         "P. Giannozzi et al., J. Phys.:Condens. Matter 21 395502 (2009);
         "P. Giannozzi et al., J. Phys.:Condens. Matter 29 465901 (2017);
          URL http://www.quantum-espresso.org", 
     in publications or presentations arising from this work. More details at
     http://www.quantum-espresso.org/quote

     Parallel version (MPI), running on     1 processors

     MPI processes distributed on     1 nodes
      Title line not specified: using 'default'.

     Reading xml data from directory:

     ./out/Si.save/

     IMPORTANT: XC functional enforced from input :
     Exchange-correlation= PBESOL
                           (   1   4  10   8   0   0   0)
     Any further DFT definition will be discarded
     Please, verify this is what you really want

 
     G-vector sticks info
     --------------------
     sticks:   dense  smooth     PW     G-vecs:    dense   smooth      PW
     Sum         877     877    253                17261    17261    2741
 
     Reading collected, re-writing distributed wavefunctions


     Dynamical matrices for ( 2, 2, 2)  uniform grid of q-points
     (   3 q-points):
       N         xq(1)         xq(2)         xq(3) 
       1   0.000000000   0.000000000   0.000000000
       2  -0.353553391   0.353553391   0.353553391
       3   0.000000000   0.000000000   0.707106781

     Calculation of q =    0.0000000   0.0000000   0.0000000

     default                                                                    

     bravais-lattice index     =            0
     lattice parameter (alat)  =       7.3075  a.u.
     unit-cell volume          =     275.9279 (a.u.)^3
     number of atoms/cell      =            2
     number of atomic types    =            1
     kinetic-energy cut-off    =      60.0000  Ry
     charge density cut-off    =     240.0000  Ry
     convergence threshold     =      1.0E-14
     beta                      =       0.7000
     number of iterations used =            4
     Exchange-correlation= PBESOL
                           (   1   4  10   8   0   0   0)


     celldm(1)=    7.30752  celldm(2)=    0.00000  celldm(3)=    0.00000
     celldm(4)=    0.00000  celldm(5)=    0.00000  celldm(6)=    0.00000

     crystal axes: (cart. coord. in units of alat)
               a(1) = ( -0.7071 -0.7071  0.0000 )  
               a(2) = ( -0.7071  0.0000 -0.7071 )  
               a(3) = (  0.0000 -0.7071 -0.7071 )  

     reciprocal axes: (cart. coord. in units 2 pi/alat)
               b(1) = ( -0.7071 -0.7071  0.7071 )  
               b(2) = ( -0.7071  0.7071 -0.7071 )  
               b(3) = (  0.7071 -0.7071 -0.7071 )  


     Atoms inside the unit cell: 

     Cartesian axes

     site n.  atom      mass           positions (alat units)
        1     Si  28.0855   tau(    1) = (   -0.35355   -0.35355   -0.35355  )
        2     Si  28.0855   tau(    2) = (   -0.70711   -0.70711   -0.70711  )

     Computing dynamical matrix for 
                    q = (   0.0000000   0.0000000   0.0000000 )
 
     49 Sym.Ops. (with q -> -q+G )


     G cutoff =  324.6324  (  17261 G-vectors)     FFT grid: ( 40, 40, 40)
     number of k points=     8

     PseudoPot. # 1 for Si read from file:
     ../pseudo/Si.pbesol-n-rrkjus_psl.1.0.0.UPF
     MD5 check sum: c4212819de858c94c3a1644338846ac9
     Pseudo is Ultrasoft + core correction, Zval =  4.0
     Generated using "atomic" code by A. Dal Corso v.6.0 svn rev. 13079
     Using radial grid of 1141 points,  6 beta functions with: 
                l(1) =   0
                l(2) =   0
                l(3) =   1
                l(4) =   1
                l(5) =   2
                l(6) =   2
     Q(r) pseudized with 0 coefficients 


     Mode symmetry, O_h (m-3m)  point group:


     Electric field:
     Dielectric constant
     Born effective charges in two ways 


     Atomic displacements:
     There are   2 irreducible representations

     Representation     1      3 modes -T_2g G_25' G_5+  To be done

     Representation     2      3 modes -T_1u G_15  G_4-  To be done



     Alpha used in Ewald sum =   2.5000
     PHONON       :      2.44s CPU      2.57s WALL


     Electric Fields Calculation

      iter #   1 total cpu time :     6.7 secs   av.it.:   6.6
      thresh= 1.000E-02 alpha_mix =  0.700 |ddv_scf|^2 =  2.424E-07

      iter #   2 total cpu time :     8.8 secs   av.it.:  10.2
      thresh= 4.923E-05 alpha_mix =  0.700 |ddv_scf|^2 =  1.440E-08

      iter #   3 total cpu time :    10.9 secs   av.it.:  10.2
      thresh= 1.200E-05 alpha_mix =  0.700 |ddv_scf|^2 =  7.146E-10

      iter #   4 total cpu time :    13.0 secs   av.it.:  10.3
      thresh= 2.673E-06 alpha_mix =  0.700 |ddv_scf|^2 =  6.712E-12

      iter #   5 total cpu time :    15.0 secs   av.it.:  10.1
      thresh= 2.591E-07 alpha_mix =  0.700 |ddv_scf|^2 =  2.548E-15

     End of electric fields calculation

          Dielectric constant in cartesian axis 

          (      25.276711752       0.000000000       0.000000000 )
          (       0.000000000      25.276711752      -0.000000000 )
          (       0.000000000       0.000000000      25.276711752 )

          Effective charges (d Force / dE) in cartesian axis

           atom      1   Si 
      Ex  (       -1.25100        0.00000        0.00000 )
      Ey  (        0.00000       -1.25100        0.00000 )
      Ez  (        0.00000        0.00000       -1.25100 )
           atom      2   Si 
      Ex  (       -1.25100        0.00000       -0.00000 )
      Ey  (        0.00000       -1.25100        0.00000 )
      Ez  (       -0.00000        0.00000       -1.25100 )


     Representation #  1 modes #   1  2  3

     Self-consistent Calculation

      iter #   1 total cpu time :    19.1 secs   av.it.:   5.0
      thresh= 1.000E-02 alpha_mix =  0.700 |ddv_scf|^2 =  2.227E-08

      iter #   2 total cpu time :    21.3 secs   av.it.:  10.2
      thresh= 1.492E-05 alpha_mix =  0.700 |ddv_scf|^2 =  1.333E-09

      iter #   3 total cpu time :    23.4 secs   av.it.:   9.9
      thresh= 3.650E-06 alpha_mix =  0.700 |ddv_scf|^2 =  6.768E-11

      iter #   4 total cpu time :    25.5 secs   av.it.:   9.8
      thresh= 8.227E-07 alpha_mix =  0.700 |ddv_scf|^2 =  1.042E-13

      iter #   5 total cpu time :    27.8 secs   av.it.:  10.5
      thresh= 3.227E-08 alpha_mix =  0.700 |ddv_scf|^2 =  1.481E-15

     End of self-consistent calculation

     Convergence has been achieved 


     Representation #  2 modes #   4  5  6

     Self-consistent Calculation

      iter #   1 total cpu time :    30.1 secs   av.it.:   5.4
      thresh= 1.000E-02 alpha_mix =  0.700 |ddv_scf|^2 =  2.121E-08

      iter #   2 total cpu time :    32.3 secs   av.it.:  10.3
      thresh= 1.456E-05 alpha_mix =  0.700 |ddv_scf|^2 =  1.479E-09

      iter #   3 total cpu time :    34.6 secs   av.it.:  10.3
      thresh= 3.846E-06 alpha_mix =  0.700 |ddv_scf|^2 =  7.372E-11

      iter #   4 total cpu time :    36.8 secs   av.it.:  10.2
      thresh= 8.586E-07 alpha_mix =  0.700 |ddv_scf|^2 =  1.988E-13

      iter #   5 total cpu time :    39.0 secs   av.it.:  10.6
      thresh= 4.458E-08 alpha_mix =  0.700 |ddv_scf|^2 =  7.432E-16

     End of self-consistent calculation

     Convergence has been achieved 
 
     Number of q in the star =    1
     List of q in the star:
          1   0.000000000   0.000000000   0.000000000

          Dielectric constant in cartesian axis 

          (      25.276711752       0.000000000       0.000000000 )
          (       0.000000000      25.276711752      -0.000000000 )
          (       0.000000000       0.000000000      25.276711752 )

          Effective charges (d Force / dE) in cartesian axis

           atom      1   Si 
      Ex  (       -1.25100        0.00000        0.00000 )
      Ey  (        0.00000       -1.25100        0.00000 )
      Ez  (        0.00000        0.00000       -1.25100 )
           atom      2   Si 
      Ex  (       -1.25100        0.00000       -0.00000 )
      Ey  (        0.00000       -1.25100        0.00000 )
      Ez  (       -0.00000        0.00000       -1.25100 )

          Effective charges (d P / du) in cartesian axis 

           atom      1   Si 
      Px  (       -1.25121        0.00000       -0.00000 )
      Py  (        0.00000       -1.25121       -0.00000 )
      Pz  (       -0.00000       -0.00000       -1.25121 )
           atom      2   Si 
      Px  (       -1.25121        0.00000       -0.00000 )
      Py  (        0.00000       -1.25121       -0.00000 )
      Pz  (        0.00000       -0.00000       -1.25121 )

     Diagonalizing the dynamical matrix

     q = (    0.000000000   0.000000000   0.000000000 ) 

 **************************************************************************
     freq (    1) =      -0.543707 [THz] =     -18.136109 [cm-1]
     freq (    2) =      -0.543707 [THz] =     -18.136109 [cm-1]
     freq (    3) =      -0.543707 [THz] =     -18.136109 [cm-1]
     freq (    4) =      15.253816 [THz] =     508.812546 [cm-1]
     freq (    5) =      15.253816 [THz] =     508.812546 [cm-1]
     freq (    6) =      15.253816 [THz] =     508.812546 [cm-1]
 **************************************************************************

     Mode symmetry, O_h (m-3m)  point group:

     freq (  1 -  3) =        -18.1  [cm-1]   --> T_1u G_15  G_4- I  
     freq (  4 -  6) =        508.8  [cm-1]   --> T_2g G_25' G_5+ R  

     Calculation of q =   -0.3535534   0.3535534   0.3535534

     Subspace diagonalization in iterative solution of the eigenvalue problem:
     a serial algorithm will be used

 
     G-vector sticks info
     --------------------
     sticks:   dense  smooth     PW     G-vecs:    dense   smooth      PW
     Sum         877     877    295                17261    17261    3287
 

     Title: 
     default                                                                    


     bravais-lattice index     =            0
     lattice parameter (alat)  =       7.3075  a.u.
     unit-cell volume          =     275.9279 (a.u.)^3
     number of atoms/cell      =            2
     number of atomic types    =            1
     number of electrons       =         8.00
     number of Kohn-Sham states=            4
     kinetic-energy cutoff     =      60.0000  Ry
     charge density cutoff     =     240.0000  Ry
     Exchange-correlation= PBESOL
                           (   1   4  10   8   0   0   0)

     celldm(1)=   7.307523  celldm(2)=   0.000000  celldm(3)=   0.000000
     celldm(4)=   0.000000  celldm(5)=   0.000000  celldm(6)=   0.000000

     crystal axes: (cart. coord. in units of alat)
               a(1) = (  -0.707107  -0.707107   0.000000 )  
               a(2) = (  -0.707107   0.000000  -0.707107 )  
               a(3) = (   0.000000  -0.707107  -0.707107 )  

     reciprocal axes: (cart. coord. in units 2 pi/alat)
               b(1) = ( -0.707107 -0.707107  0.707107 )  
               b(2) = ( -0.707107  0.707107 -0.707107 )  
               b(3) = (  0.707107 -0.707107 -0.707107 )  


     PseudoPot. # 1 for Si read from file:
     ../pseudo/Si.pbesol-n-rrkjus_psl.1.0.0.UPF
     MD5 check sum: c4212819de858c94c3a1644338846ac9
     Pseudo is Ultrasoft + core correction, Zval =  4.0
     Generated using "atomic" code by A. Dal Corso v.6.0 svn rev. 13079
     Using radial grid of 1141 points,  6 beta functions with: 
                l(1) =   0
                l(2) =   0
                l(3) =   1
                l(4) =   1
                l(5) =   2
                l(6) =   2
     Q(r) pseudized with 0 coefficients 


     atomic species   valence    mass     pseudopotential
        Si             4.00    28.08550     Si( 1.00)

     48 Sym. Ops., with inversion, found



   Cartesian axes

     site n.     atom                  positions (alat units)
         1           Si  tau(   1) = (  -0.3535534  -0.3535534  -0.3535534  )
         2           Si  tau(   2) = (  -0.7071068  -0.7071068  -0.7071068  )

     number of k points=    26
                       cart. coord. in units 2pi/alat
        k(    1) = (   0.0000000   0.0000000   0.0000000), wk =   0.0312500
        k(    2) = (  -0.3535534   0.3535534   0.3535534), wk =   0.0000000
        k(    3) = (   0.1767767  -0.1767767  -0.1767767), wk =   0.0625000
        k(    4) = (  -0.1767767   0.1767767   0.1767767), wk =   0.0000000
        k(    5) = (  -0.3535534   0.3535534   0.3535534), wk =   0.0312500
        k(    6) = (  -0.7071068   0.7071068   0.7071068), wk =   0.0000000
        k(    7) = (   0.0000000   0.0000000  -0.3535534), wk =   0.1875000
        k(    8) = (  -0.3535534   0.3535534   0.0000000), wk =   0.0000000
        k(    9) = (  -0.5303301   0.5303301   0.1767767), wk =   0.1875000
        k(   10) = (  -0.8838835   0.8838835   0.5303301), wk =   0.0000000
        k(   11) = (  -0.3535534   0.3535534   0.0000000), wk =   0.1875000
        k(   12) = (  -0.7071068   0.7071068   0.3535534), wk =   0.0000000
        k(   13) = (   0.0000000   0.0000000   0.7071068), wk =   0.0937500
        k(   14) = (  -0.3535534   0.3535534   1.0606602), wk =   0.0000000
        k(   15) = (   0.0000000  -0.3535534   0.7071068), wk =   0.1875000
        k(   16) = (  -0.3535534  -0.0000000   1.0606602), wk =   0.0000000
        k(   17) = (  -0.1767767   0.1767767  -0.1767767), wk =   0.1875000
        k(   18) = (  -0.5303301   0.5303301   0.1767767), wk =   0.0000000
        k(   19) = (   0.3535534  -0.3535534   0.3535534), wk =   0.0937500
        k(   20) = (   0.0000000   0.0000000   0.7071068), wk =   0.0000000
        k(   21) = (   0.5303301  -0.5303301   0.1767767), wk =   0.1875000
        k(   22) = (   0.1767767  -0.1767767   0.5303301), wk =   0.0000000
        k(   23) = (  -0.5303301  -0.5303301  -0.1767767), wk =   0.3750000
        k(   24) = (  -0.8838835  -0.1767767   0.1767767), wk =   0.0000000
        k(   25) = (  -0.3535534  -0.3535534   0.0000000), wk =   0.1875000
        k(   26) = (  -0.7071068   0.0000000   0.3535534), wk =   0.0000000

     Dense  grid:    17261 G-vectors     FFT dimensions: (  40,  40,  40)

     Estimated max dynamical RAM per process >      58.94 MB

     The potential is recalculated from file :
     ./out/_ph0/Si.save/charge-density

     Starting wfcs are    8 atomic wfcs

     Band Structure Calculation
     Davidson diagonalization with overlap

     ethr =  1.25E-10,  avg # of iterations = 11.9

     total cpu time spent up to now is        2.5 secs

     End of band structure calculation

          k = 0.0000 0.0000 0.0000 (  2109 PWs)   bands (ev):

    -5.8729   5.9832   5.9832   5.9832

          k =-0.3536 0.3536 0.3536 (  2138 PWs)   bands (ev):

    -3.5734  -0.9467   4.7929   4.7929

          k = 0.1768-0.1768-0.1768 (  2160 PWs)   bands (ev):

    -5.0842   2.0607   5.2272   5.2272

          k =-0.1768 0.1768 0.1768 (  2160 PWs)   bands (ev):

    -5.0842   2.0607   5.2272   5.2272

          k =-0.3536 0.3536 0.3536 (  2138 PWs)   bands (ev):

    -3.5734  -0.9467   4.7929   4.7929

          k =-0.7071 0.7071 0.7071 (  2109 PWs)   bands (ev):

    -5.8729   5.9832   5.9832   5.9832

          k = 0.0000 0.0000-0.3536 (  2181 PWs)   bands (ev):

    -4.8059   2.4557   4.1052   4.1052

          k =-0.3536 0.3536 0.0000 (  2151 PWs)   bands (ev):

    -3.8573   0.5211   2.2442   4.6640

          k =-0.5303 0.5303 0.1768 (  2166 PWs)   bands (ev):

    -3.1924  -0.3697   2.4598   3.7939

          k =-0.8839 0.8839 0.5303 (  2160 PWs)   bands (ev):

    -5.0842   2.0607   5.2272   5.2272

          k =-0.3536 0.3536 0.0000 (  2151 PWs)   bands (ev):

    -3.8573   0.5211   2.2442   4.6640

          k =-0.7071 0.7071 0.3536 (  2181 PWs)   bands (ev):

    -4.8059   2.4557   4.1052   4.1052

          k = 0.0000 0.0000 0.7071 (  2200 PWs)   bands (ev):

    -1.7860  -1.7860   3.1528   3.1528

          k =-0.3536 0.3536 1.0607 (  2138 PWs)   bands (ev):

    -3.5734  -0.9467   4.7929   4.7929

          k = 0.0000-0.3536 0.7071 (  2180 PWs)   bands (ev):

    -1.6244  -1.6244   2.1489   2.1489

          k =-0.3536-0.0000 1.0607 (  2151 PWs)   bands (ev):

    -3.8573   0.5211   2.2442   4.6640

          k =-0.1768 0.1768-0.1768 (  2160 PWs)   bands (ev):

    -5.0842   2.0607   5.2272   5.2272

          k =-0.5303 0.5303 0.1768 (  2166 PWs)   bands (ev):

    -3.1924  -0.3697   2.4598   3.7939

          k = 0.3536-0.3536 0.3536 (  2138 PWs)   bands (ev):

    -3.5734  -0.9467   4.7929   4.7929

          k = 0.0000 0.0000 0.7071 (  2200 PWs)   bands (ev):

    -1.7860  -1.7860   3.1528   3.1528

          k = 0.5303-0.5303 0.1768 (  2166 PWs)   bands (ev):

    -3.1924  -0.3697   2.4598   3.7939

          k = 0.1768-0.1768 0.5303 (  2166 PWs)   bands (ev):

    -3.1924  -0.3697   2.4598   3.7939

          k =-0.5303-0.5303-0.1768 (  2166 PWs)   bands (ev):

    -3.1924  -0.3697   2.4598   3.7939

          k =-0.8839-0.1768 0.1768 (  2166 PWs)   bands (ev):

    -3.1924  -0.3697   2.4598   3.7939

          k =-0.3536-0.3536 0.0000 (  2151 PWs)   bands (ev):

    -3.8573   0.5211   2.2442   4.6640

          k =-0.7071 0.0000 0.3536 (  2180 PWs)   bands (ev):

    -1.6244  -1.6244   2.1489   2.1489

     highest occupied level (ev):     5.9832

     Writing output data file ./out/_ph0/Si.save/

     default                                                                    

     bravais-lattice index     =            0
     lattice parameter (alat)  =       7.3075  a.u.
     unit-cell volume          =     275.9279 (a.u.)^3
     number of atoms/cell      =            2
     number of atomic types    =            1
     kinetic-energy cut-off    =      60.0000  Ry
     charge density cut-off    =     240.0000  Ry
     convergence threshold     =      1.0E-14
     beta                      =       0.7000
     number of iterations used =            4
     Exchange-correlation= PBESOL
                           (   1   4  10   8   0   0   0)


     celldm(1)=    7.30752  celldm(2)=    0.00000  celldm(3)=    0.00000
     celldm(4)=    0.00000  celldm(5)=    0.00000  celldm(6)=    0.00000

     crystal axes: (cart. coord. in units of alat)
               a(1) = ( -0.7071 -0.7071  0.0000 )  
               a(2) = ( -0.7071  0.0000 -0.7071 )  
               a(3) = (  0.0000 -0.7071 -0.7071 )  

     reciprocal axes: (cart. coord. in units 2 pi/alat)
               b(1) = ( -0.7071 -0.7071  0.7071 )  
               b(2) = ( -0.7071  0.7071 -0.7071 )  
               b(3) = (  0.7071 -0.7071 -0.7071 )  


     Atoms inside the unit cell: 

     Cartesian axes

     site n.  atom      mass           positions (alat units)
        1     Si  28.0855   tau(    1) = (   -0.35355   -0.35355   -0.35355  )
        2     Si  28.0855   tau(    2) = (   -0.70711   -0.70711   -0.70711  )

     Computing dynamical matrix for 
                    q = (  -0.3535534   0.3535534   0.3535534 )
 
     13 Sym.Ops. (with q -> -q+G )


     G cutoff =  324.6324  (  17261 G-vectors)     FFT grid: ( 40, 40, 40)
     number of k points=    26

     PseudoPot. # 1 for Si read from file:
     ../pseudo/Si.pbesol-n-rrkjus_psl.1.0.0.UPF
     MD5 check sum: c4212819de858c94c3a1644338846ac9
     Pseudo is Ultrasoft + core correction, Zval =  4.0
     Generated using "atomic" code by A. Dal Corso v.6.0 svn rev. 13079
     Using radial grid of 1141 points,  6 beta functions with: 
                l(1) =   0
                l(2) =   0
                l(3) =   1
                l(4) =   1
                l(5) =   2
                l(6) =   2
     Q(r) pseudized with 0 coefficients 



     Atomic displacements:
     There are   4 irreducible representations

     Representation     1      1 modes -  To be done

     Representation     2      1 modes -  To be done

     Representation     3      2 modes -  To be done

     Representation     4      2 modes -  To be done



     Alpha used in Ewald sum =   2.5000
     PHONON       :     43.79s CPU     44.68s WALL



     Representation #  1 mode #   1

     Self-consistent Calculation

      iter #   1 total cpu time :    45.6 secs   av.it.:   5.0
      thresh= 1.000E-02 alpha_mix =  0.700 |ddv_scf|^2 =  3.102E-06

      iter #   2 total cpu time :    46.7 secs   av.it.:   9.2
      thresh= 1.761E-04 alpha_mix =  0.700 |ddv_scf|^2 =  2.771E-06

      iter #   3 total cpu time :    47.9 secs   av.it.:   8.3
      thresh= 1.664E-04 alpha_mix =  0.700 |ddv_scf|^2 =  3.695E-09

      iter #   4 total cpu time :    49.0 secs   av.it.:   8.6
      thresh= 6.079E-06 alpha_mix =  0.700 |ddv_scf|^2 =  1.977E-11

      iter #   5 total cpu time :    50.1 secs   av.it.:   8.7
      thresh= 4.447E-07 alpha_mix =  0.700 |ddv_scf|^2 =  2.674E-13

      iter #   6 total cpu time :    51.3 secs   av.it.:   9.1
      thresh= 5.171E-08 alpha_mix =  0.700 |ddv_scf|^2 =  5.429E-15

     End of self-consistent calculation

     Convergence has been achieved 


     Representation #  2 mode #   2

     Self-consistent Calculation

      iter #   1 total cpu time :    52.3 secs   av.it.:   6.0
      thresh= 1.000E-02 alpha_mix =  0.700 |ddv_scf|^2 =  4.564E-05

      iter #   2 total cpu time :    53.5 secs   av.it.:   9.1
      thresh= 6.755E-04 alpha_mix =  0.700 |ddv_scf|^2 =  1.521E-04

      iter #   3 total cpu time :    54.6 secs   av.it.:   8.2
      thresh= 1.233E-03 alpha_mix =  0.700 |ddv_scf|^2 =  1.436E-08

      iter #   4 total cpu time :    55.8 secs   av.it.:   9.3
      thresh= 1.198E-05 alpha_mix =  0.700 |ddv_scf|^2 =  8.277E-10

      iter #   5 total cpu time :    57.0 secs   av.it.:   9.7
      thresh= 2.877E-06 alpha_mix =  0.700 |ddv_scf|^2 =  1.700E-11

      iter #   6 total cpu time :    58.2 secs   av.it.:   9.5
      thresh= 4.123E-07 alpha_mix =  0.700 |ddv_scf|^2 =  4.710E-13

      iter #   7 total cpu time :    59.4 secs   av.it.:   8.9
      thresh= 6.863E-08 alpha_mix =  0.700 |ddv_scf|^2 =  5.111E-16

     End of self-consistent calculation

     Convergence has been achieved 


     Representation #  3 modes #   3  4

     Self-consistent Calculation

      iter #   1 total cpu time :    61.1 secs   av.it.:   5.3
      thresh= 1.000E-02 alpha_mix =  0.700 |ddv_scf|^2 =  1.126E-07

      iter #   2 total cpu time :    63.4 secs   av.it.:  10.1
      thresh= 3.355E-05 alpha_mix =  0.700 |ddv_scf|^2 =  1.019E-08

      iter #   3 total cpu time :    65.7 secs   av.it.:  10.0
      thresh= 1.009E-05 alpha_mix =  0.700 |ddv_scf|^2 =  4.740E-10

      iter #   4 total cpu time :    68.0 secs   av.it.:   9.7
      thresh= 2.177E-06 alpha_mix =  0.700 |ddv_scf|^2 =  2.833E-13

      iter #   5 total cpu time :    70.3 secs   av.it.:  10.4
      thresh= 5.322E-08 alpha_mix =  0.700 |ddv_scf|^2 =  4.247E-15

     End of self-consistent calculation

     Convergence has been achieved 


     Representation #  4 modes #   5  6

     Self-consistent Calculation

      iter #   1 total cpu time :    72.1 secs   av.it.:   5.3
      thresh= 1.000E-02 alpha_mix =  0.700 |ddv_scf|^2 =  3.781E-08

      iter #   2 total cpu time :    74.3 secs   av.it.:  10.1
      thresh= 1.945E-05 alpha_mix =  0.700 |ddv_scf|^2 =  2.621E-09

      iter #   3 total cpu time :    76.6 secs   av.it.:   9.8
      thresh= 5.120E-06 alpha_mix =  0.700 |ddv_scf|^2 =  3.868E-11

      iter #   4 total cpu time :    78.9 secs   av.it.:  10.1
      thresh= 6.219E-07 alpha_mix =  0.700 |ddv_scf|^2 =  3.846E-13

      iter #   5 total cpu time :    81.2 secs   av.it.:  10.4
      thresh= 6.202E-08 alpha_mix =  0.700 |ddv_scf|^2 =  4.837E-15

     End of self-consistent calculation

     Convergence has been achieved 
 
     Number of q in the star =    4
     List of q in the star:
          1  -0.353553391   0.353553391   0.353553391
          2   0.353553391  -0.353553391   0.353553391
          3  -0.353553391  -0.353553391  -0.353553391
          4   0.353553391   0.353553391  -0.353553391

     Diagonalizing the dynamical matrix

     q = (   -0.353553391   0.353553391   0.353553391 ) 

 **************************************************************************
     freq (    1) =       3.068466 [THz] =     102.353010 [cm-1]
     freq (    2) =       3.068466 [THz] =     102.353010 [cm-1]
     freq (    3) =      11.259877 [THz] =     375.589066 [cm-1]
     freq (    4) =      11.706264 [THz] =     390.478937 [cm-1]
     freq (    5) =      14.257314 [THz] =     475.572814 [cm-1]
     freq (    6) =      14.257314 [THz] =     475.572814 [cm-1]
 **************************************************************************

     Calculation of q =    0.0000000   0.0000000   0.7071068
 
     G-vector sticks info
     --------------------
     sticks:   dense  smooth     PW     G-vecs:    dense   smooth      PW
     Sum         877     877    301                17261    17261    3479
 

     Title: 
     default                                                                    


     bravais-lattice index     =            0
     lattice parameter (alat)  =       7.3075  a.u.
     unit-cell volume          =     275.9279 (a.u.)^3
     number of atoms/cell      =            2
     number of atomic types    =            1
     number of electrons       =         8.00
     number of Kohn-Sham states=            4
     kinetic-energy cutoff     =      60.0000  Ry
     charge density cutoff     =     240.0000  Ry
     Exchange-correlation= PBESOL
                           (   1   4  10   8   0   0   0)

     celldm(1)=   7.307523  celldm(2)=   0.000000  celldm(3)=   0.000000
     celldm(4)=   0.000000  celldm(5)=   0.000000  celldm(6)=   0.000000

     crystal axes: (cart. coord. in units of alat)
               a(1) = (  -0.707107  -0.707107   0.000000 )  
               a(2) = (  -0.707107   0.000000  -0.707107 )  
               a(3) = (   0.000000  -0.707107  -0.707107 )  

     reciprocal axes: (cart. coord. in units 2 pi/alat)
               b(1) = ( -0.707107 -0.707107  0.707107 )  
               b(2) = ( -0.707107  0.707107 -0.707107 )  
               b(3) = (  0.707107 -0.707107 -0.707107 )  


     PseudoPot. # 1 for Si read from file:
     ../pseudo/Si.pbesol-n-rrkjus_psl.1.0.0.UPF
     MD5 check sum: c4212819de858c94c3a1644338846ac9
     Pseudo is Ultrasoft + core correction, Zval =  4.0
     Generated using "atomic" code by A. Dal Corso v.6.0 svn rev. 13079
     Using radial grid of 1141 points,  6 beta functions with: 
                l(1) =   0
                l(2) =   0
                l(3) =   1
                l(4) =   1
                l(5) =   2
                l(6) =   2
     Q(r) pseudized with 0 coefficients 


     atomic species   valence    mass     pseudopotential
        Si             4.00    28.08550     Si( 1.00)

     48 Sym. Ops., with inversion, found



   Cartesian axes

     site n.     atom                  positions (alat units)
         1           Si  tau(   1) = (  -0.3535534  -0.3535534  -0.3535534  )
         2           Si  tau(   2) = (  -0.7071068  -0.7071068  -0.7071068  )

     number of k points=    26
                       cart. coord. in units 2pi/alat
        k(    1) = (   0.0000000   0.0000000   0.0000000), wk =   0.0312500
        k(    2) = (   0.0000000   0.0000000   0.7071068), wk =   0.0000000
        k(    3) = (   0.1767767  -0.1767767  -0.1767767), wk =   0.2500000
        k(    4) = (   0.1767767  -0.1767767   0.5303301), wk =   0.0000000
        k(    5) = (  -0.3535534   0.3535534   0.3535534), wk =   0.1250000
        k(    6) = (  -0.3535534   0.3535534   1.0606602), wk =   0.0000000
        k(    7) = (   0.0000000   0.0000000  -0.3535534), wk =   0.0625000
        k(    8) = (   0.0000000   0.0000000   0.3535534), wk =   0.0000000
        k(    9) = (  -0.5303301   0.5303301   0.1767767), wk =   0.2500000
        k(   10) = (  -0.5303301   0.5303301   0.8838835), wk =   0.0000000
        k(   11) = (  -0.3535534   0.3535534   0.0000000), wk =   0.1250000
        k(   12) = (  -0.3535534   0.3535534   0.7071068), wk =   0.0000000
        k(   13) = (   0.0000000   0.0000000   0.7071068), wk =   0.0312500
        k(   14) = (   0.0000000   0.0000000   1.4142136), wk =   0.0000000
        k(   15) = (   0.0000000  -0.3535534   0.7071068), wk =   0.1250000
        k(   16) = (   0.0000000  -0.3535534   1.4142136), wk =   0.0000000
        k(   17) = (   0.0000000  -0.3535534   0.0000000), wk =   0.1250000
        k(   18) = (   0.0000000  -0.3535534   0.7071068), wk =   0.0000000
        k(   19) = (   0.5303301   0.1767767  -0.5303301), wk =   0.5000000
        k(   20) = (   0.5303301   0.1767767   0.1767767), wk =   0.0000000
        k(   21) = (   0.3535534   0.0000000  -0.3535534), wk =   0.2500000
        k(   22) = (   0.3535534   0.0000000   0.3535534), wk =   0.0000000
        k(   23) = (   0.0000000   0.7071068   0.0000000), wk =   0.0625000
        k(   24) = (   0.0000000   0.7071068   0.7071068), wk =   0.0000000
        k(   25) = (   0.0000000   0.7071068  -0.3535534), wk =   0.0625000
        k(   26) = (   0.0000000   0.7071068   0.3535534), wk =   0.0000000

     Dense  grid:    17261 G-vectors     FFT dimensions: (  40,  40,  40)

     Estimated max dynamical RAM per process >      58.95 MB

     The potential is recalculated from file :
     ./out/_ph0/Si.save/charge-density

     Starting wfcs are    8 atomic wfcs

     Band Structure Calculation
     Davidson diagonalization with overlap

     ethr =  1.25E-10,  avg # of iterations = 11.5

     total cpu time spent up to now is        5.0 secs

     End of band structure calculation

          k = 0.0000 0.0000 0.0000 (  2109 PWs)   bands (ev):

    -5.8729   5.9832   5.9832   5.9832

          k = 0.0000 0.0000 0.7071 (  2200 PWs)   bands (ev):

    -1.7860  -1.7860   3.1528   3.1528

          k = 0.1768-0.1768-0.1768 (  2160 PWs)   bands (ev):

    -5.0842   2.0607   5.2272   5.2272

          k = 0.1768-0.1768 0.5303 (  2166 PWs)   bands (ev):

    -3.1924  -0.3697   2.4598   3.7939

          k =-0.3536 0.3536 0.3536 (  2138 PWs)   bands (ev):

    -3.5734  -0.9467   4.7929   4.7929

          k =-0.3536 0.3536 1.0607 (  2138 PWs)   bands (ev):

    -3.5734  -0.9467   4.7929   4.7929

          k = 0.0000 0.0000-0.3536 (  2181 PWs)   bands (ev):

    -4.8059   2.4557   4.1052   4.1052

          k = 0.0000 0.0000 0.3536 (  2181 PWs)   bands (ev):

    -4.8059   2.4557   4.1052   4.1052

          k =-0.5303 0.5303 0.1768 (  2166 PWs)   bands (ev):

    -3.1924  -0.3697   2.4598   3.7939

          k =-0.5303 0.5303 0.8839 (  2160 PWs)   bands (ev):

    -5.0842   2.0607   5.2272   5.2272

          k =-0.3536 0.3536 0.0000 (  2151 PWs)   bands (ev):

    -3.8573   0.5211   2.2442   4.6640

          k =-0.3536 0.3536 0.7071 (  2151 PWs)   bands (ev):

    -3.8573   0.5211   2.2442   4.6640

          k = 0.0000 0.0000 0.7071 (  2200 PWs)   bands (ev):

    -1.7860  -1.7860   3.1528   3.1528

          k = 0.0000 0.0000 1.4142 (  2109 PWs)   bands (ev):

    -5.8729   5.9832   5.9832   5.9832

          k = 0.0000-0.3536 0.7071 (  2180 PWs)   bands (ev):

    -1.6244  -1.6244   2.1489   2.1489

          k = 0.0000-0.3536 1.4142 (  2181 PWs)   bands (ev):

    -4.8059   2.4557   4.1052   4.1052

          k = 0.0000-0.3536 0.0000 (  2181 PWs)   bands (ev):

    -4.8059   2.4557   4.1052   4.1052

          k = 0.0000-0.3536 0.7071 (  2180 PWs)   bands (ev):

    -1.6244  -1.6244   2.1489   2.1489

          k = 0.5303 0.1768-0.5303 (  2166 PWs)   bands (ev):

    -3.1924  -0.3697   2.4598   3.7939

          k = 0.5303 0.1768 0.1768 (  2166 PWs)   bands (ev):

    -3.1924  -0.3697   2.4598   3.7939

          k = 0.3536 0.0000-0.3536 (  2151 PWs)   bands (ev):

    -3.8573   0.5211   2.2442   4.6640

          k = 0.3536 0.0000 0.3536 (  2151 PWs)   bands (ev):

    -3.8573   0.5211   2.2442   4.6640

          k = 0.0000 0.7071 0.0000 (  2200 PWs)   bands (ev):

    -1.7860  -1.7860   3.1528   3.1528

          k = 0.0000 0.7071 0.7071 (  2200 PWs)   bands (ev):

    -1.7860  -1.7860   3.1528   3.1528

          k = 0.0000 0.7071-0.3536 (  2180 PWs)   bands (ev):

    -1.6244  -1.6244   2.1489   2.1489

          k = 0.0000 0.7071 0.3536 (  2180 PWs)   bands (ev):

    -1.6244  -1.6244   2.1489   2.1489

     highest occupied level (ev):     5.9832

     Writing output data file ./out/_ph0/Si.save/

     default                                                                    

     bravais-lattice index     =            0
     lattice parameter (alat)  =       7.3075  a.u.
     unit-cell volume          =     275.9279 (a.u.)^3
     number of atoms/cell      =            2
     number of atomic types    =            1
     kinetic-energy cut-off    =      60.0000  Ry
     charge density cut-off    =     240.0000  Ry
     convergence threshold     =      1.0E-14
     beta                      =       0.7000
     number of iterations used =            4
     Exchange-correlation= PBESOL
                           (   1   4  10   8   0   0   0)


     celldm(1)=    7.30752  celldm(2)=    0.00000  celldm(3)=    0.00000
     celldm(4)=    0.00000  celldm(5)=    0.00000  celldm(6)=    0.00000

     crystal axes: (cart. coord. in units of alat)
               a(1) = ( -0.7071 -0.7071  0.0000 )  
               a(2) = ( -0.7071  0.0000 -0.7071 )  
               a(3) = (  0.0000 -0.7071 -0.7071 )  

     reciprocal axes: (cart. coord. in units 2 pi/alat)
               b(1) = ( -0.7071 -0.7071  0.7071 )  
               b(2) = ( -0.7071  0.7071 -0.7071 )  
               b(3) = (  0.7071 -0.7071 -0.7071 )  


     Atoms inside the unit cell: 

     Cartesian axes

     site n.  atom      mass           positions (alat units)
        1     Si  28.0855   tau(    1) = (   -0.35355   -0.35355   -0.35355  )
        2     Si  28.0855   tau(    2) = (   -0.70711   -0.70711   -0.70711  )

     Computing dynamical matrix for 
                    q = (   0.0000000   0.0000000   0.7071068 )
 
     17 Sym.Ops. (with q -> -q+G )


     G cutoff =  324.6324  (  17261 G-vectors)     FFT grid: ( 40, 40, 40)
     number of k points=    26

     PseudoPot. # 1 for Si read from file:
     ../pseudo/Si.pbesol-n-rrkjus_psl.1.0.0.UPF
     MD5 check sum: c4212819de858c94c3a1644338846ac9
     Pseudo is Ultrasoft + core correction, Zval =  4.0
     Generated using "atomic" code by A. Dal Corso v.6.0 svn rev. 13079
     Using radial grid of 1141 points,  6 beta functions with: 
                l(1) =   0
                l(2) =   0
                l(3) =   1
                l(4) =   1
                l(5) =   2
                l(6) =   2
     Q(r) pseudized with 0 coefficients 



     Atomic displacements:
     There are   3 irreducible representations

     Representation     1      2 modes -  To be done

     Representation     2      2 modes -  To be done

     Representation     3      2 modes -  To be done



     Alpha used in Ewald sum =   2.5000
     PHONON       :   1m24.68s CPU   1m26.17s WALL



     Representation #  1 modes #   1  2

     Self-consistent Calculation

      iter #   1 total cpu time :    87.8 secs   av.it.:   4.9
      thresh= 1.000E-02 alpha_mix =  0.700 |ddv_scf|^2 =  3.219E-08

      iter #   2 total cpu time :    90.1 secs   av.it.:   9.4
      thresh= 1.794E-05 alpha_mix =  0.700 |ddv_scf|^2 =  2.300E-09

      iter #   3 total cpu time :    92.4 secs   av.it.:   9.7
      thresh= 4.796E-06 alpha_mix =  0.700 |ddv_scf|^2 =  5.218E-12

      iter #   4 total cpu time :    94.7 secs   av.it.:   9.8
      thresh= 2.284E-07 alpha_mix =  0.700 |ddv_scf|^2 =  7.755E-14

      iter #   5 total cpu time :    97.0 secs   av.it.:  10.1
      thresh= 2.785E-08 alpha_mix =  0.700 |ddv_scf|^2 =  3.151E-16

     End of self-consistent calculation

     Convergence has been achieved 


     Representation #  2 modes #   3  4

     Self-consistent Calculation

      iter #   1 total cpu time :    98.9 secs   av.it.:   5.9
      thresh= 1.000E-02 alpha_mix =  0.700 |ddv_scf|^2 =  2.196E-06

      iter #   2 total cpu time :   101.3 secs   av.it.:   9.8
      thresh= 1.482E-04 alpha_mix =  0.700 |ddv_scf|^2 =  3.158E-06

      iter #   3 total cpu time :   103.5 secs   av.it.:   9.5
      thresh= 1.777E-04 alpha_mix =  0.700 |ddv_scf|^2 =  1.520E-09

      iter #   4 total cpu time :   105.8 secs   av.it.:  10.0
      thresh= 3.899E-06 alpha_mix =  0.700 |ddv_scf|^2 =  9.741E-11

      iter #   5 total cpu time :   108.2 secs   av.it.:  10.2
      thresh= 9.869E-07 alpha_mix =  0.700 |ddv_scf|^2 =  6.391E-13

      iter #   6 total cpu time :   110.5 secs   av.it.:  10.2
      thresh= 7.994E-08 alpha_mix =  0.700 |ddv_scf|^2 =  1.293E-14

      iter #   7 total cpu time :   112.8 secs   av.it.:  10.1
      thresh= 1.137E-08 alpha_mix =  0.700 |ddv_scf|^2 =  1.700E-16

     End of self-consistent calculation

     Convergence has been achieved 


     Representation #  3 modes #   5  6

     Self-consistent Calculation

      iter #   1 total cpu time :   114.6 secs   av.it.:   5.7
      thresh= 1.000E-02 alpha_mix =  0.700 |ddv_scf|^2 =  3.928E-07

      iter #   2 total cpu time :   117.0 secs   av.it.:   9.9
      thresh= 6.268E-05 alpha_mix =  0.700 |ddv_scf|^2 =  1.062E-07

      iter #   3 total cpu time :   119.2 secs   av.it.:   9.7
      thresh= 3.258E-05 alpha_mix =  0.700 |ddv_scf|^2 =  8.179E-10

      iter #   4 total cpu time :   121.5 secs   av.it.:   9.5
      thresh= 2.860E-06 alpha_mix =  0.700 |ddv_scf|^2 =  4.028E-13

      iter #   5 total cpu time :   123.7 secs   av.it.:   9.8
      thresh= 6.347E-08 alpha_mix =  0.700 |ddv_scf|^2 =  1.414E-14

      iter #   6 total cpu time :   126.0 secs   av.it.:   9.6
      thresh= 1.189E-08 alpha_mix =  0.700 |ddv_scf|^2 =  3.989E-17

     End of self-consistent calculation

     Convergence has been achieved 
 
     Number of q in the star =    3
     List of q in the star:
          1   0.000000000   0.000000000   0.707106781
          2   0.000000000   0.707106781   0.000000000
          3   0.707106781   0.000000000   0.000000000

     Diagonalizing the dynamical matrix

     q = (    0.000000000   0.000000000   0.707106781 ) 

 **************************************************************************
     freq (    1) =       4.078745 [THz] =     136.052293 [cm-1]
     freq (    2) =       4.078745 [THz] =     136.052293 [cm-1]
     freq (    3) =      11.840273 [THz] =     394.949003 [cm-1]
     freq (    4) =      11.840273 [THz] =     394.949003 [cm-1]
     freq (    5) =      13.214925 [THz] =     440.802438 [cm-1]
     freq (    6) =      13.214925 [THz] =     440.802438 [cm-1]
 **************************************************************************
 
     init_run     :      0.82s CPU      0.85s WALL (       2 calls)
     electrons    :      4.03s CPU      4.06s WALL (       2 calls)

     Called by init_run:
     wfcinit      :      0.00s CPU      0.00s WALL (       2 calls)
     potinit      :      0.05s CPU      0.05s WALL (       2 calls)
     hinit0       :      0.63s CPU      0.63s WALL (       2 calls)

     Called by electrons:
     c_bands      :      4.03s CPU      4.06s WALL (       2 calls)
     v_of_rho     :      0.06s CPU      0.07s WALL (       3 calls)
     newd         :      0.08s CPU      0.11s WALL (       3 calls)

     Called by c_bands:
     init_us_2    :      0.69s CPU      0.72s WALL (     996 calls)
     cegterg      :      3.20s CPU      3.23s WALL (      52 calls)

     Called by sum_band:

     Called by *egterg:
     h_psi        :     61.14s CPU     61.59s WALL (   14685 calls)
     s_psi        :      5.27s CPU      5.34s WALL (   29963 calls)
     g_psi        :      0.02s CPU      0.02s WALL (     608 calls)
     cdiaghg      :      0.05s CPU      0.05s WALL (     660 calls)

     Called by h_psi:
     h_psi:calbec :      2.69s CPU      2.71s WALL (   14685 calls)
     vloc_psi     :     55.61s CPU     56.01s WALL (   14685 calls)
     add_vuspsi   :      2.59s CPU      2.62s WALL (   14685 calls)

     General routines
     calbec       :      6.29s CPU      6.37s WALL (   35036 calls)
     fft          :      1.01s CPU      1.02s WALL (    2142 calls)
     ffts         :      0.15s CPU      0.16s WALL (     324 calls)
     fftw         :     57.72s CPU     58.20s WALL (  125544 calls)
     davcio       :      0.31s CPU      0.59s WALL (    6818 calls)
 
     Parallel routines
 
     PHONON       :   2m 4.08s CPU   2m 6.14s WALL

     INITIALIZATION: 
     phq_setup    :      0.32s CPU      0.37s WALL (       3 calls)
     phq_init     :      6.09s CPU      6.15s WALL (       3 calls)
 
     phq_init     :      6.09s CPU      6.15s WALL (       3 calls)
     set_drhoc    :      1.25s CPU      1.25s WALL (       9 calls)
     init_vloc    :      0.01s CPU      0.01s WALL (       3 calls)
     init_us_1    :      0.77s CPU      0.77s WALL (       3 calls)
     newd         :      0.08s CPU      0.11s WALL (       3 calls)
     dvanqq       :      2.36s CPU      2.36s WALL (       3 calls)
     drho         :      1.94s CPU      1.97s WALL (       3 calls)
 
     DYNAMICAL MATRIX:
     dynmat0      :      0.96s CPU      0.98s WALL (       3 calls)
     phqscf       :     97.50s CPU     98.87s WALL (       3 calls)
     dynmatrix    :      0.01s CPU      0.07s WALL (       3 calls)
 
     phqscf       :     97.50s CPU     98.87s WALL (       3 calls)
     solve_linter :     96.02s CPU     97.24s WALL (       9 calls)
     drhodv       :      0.33s CPU      0.34s WALL (       9 calls)
 
     dynmat0      :      0.96s CPU      0.98s WALL (       3 calls)
     dynmat_us    :      0.10s CPU      0.10s WALL (       3 calls)
     d2ionq       :      0.01s CPU      0.01s WALL (       3 calls)
     dynmatcc     :      0.84s CPU      0.84s WALL (       3 calls)
 
     dynmat_us    :      0.10s CPU      0.10s WALL (       3 calls)
     addusdynmat  :      0.00s CPU      0.00s WALL (       3 calls)
 
     phqscf       :     97.50s CPU     98.87s WALL (       3 calls)
     solve_linter :     96.02s CPU     97.24s WALL (       9 calls)
 
     solve_linter :     96.02s CPU     97.24s WALL (       9 calls)
     dvqpsi_us    :      1.91s CPU      1.93s WALL (     252 calls)
     ortho        :      0.61s CPU      0.62s WALL (    1281 calls)
     cgsolve      :     68.32s CPU     68.88s WALL (    1281 calls)
     incdrhoscf   :      6.89s CPU      6.99s WALL (    1281 calls)
     addusddens   :      7.44s CPU      7.47s WALL (      60 calls)
     vpsifft      :      4.47s CPU      4.54s WALL (     933 calls)
     dv_of_drho   :      1.28s CPU      1.31s WALL (     117 calls)
     mix_pot      :      0.16s CPU      0.43s WALL (      56 calls)
     psymdvscf    :      3.77s CPU      3.78s WALL (      51 calls)
     newdq        :     11.80s CPU     11.84s WALL (      56 calls)
     adddvscf     :      0.36s CPU      0.36s WALL (    1029 calls)
     drhodvus     :      0.01s CPU      0.02s WALL (       9 calls)
 
     dvqpsi_us    :      1.91s CPU      1.93s WALL (     252 calls)
     dvqpsi_us_on :      0.46s CPU      0.46s WALL (     252 calls)
 
     cgsolve      :     68.32s CPU     68.88s WALL (    1281 calls)
     ch_psi       :     67.16s CPU     67.70s WALL (   13973 calls)
 
     ch_psi       :     67.16s CPU     67.70s WALL (   13973 calls)
     h_psi        :     61.14s CPU     61.59s WALL (   14685 calls)
     last         :      6.36s CPU      6.44s WALL (   13973 calls)
 
     h_psi        :     61.14s CPU     61.59s WALL (   14685 calls)
     add_vuspsi   :      2.59s CPU      2.62s WALL (   14685 calls)
 
     incdrhoscf   :      6.89s CPU      6.99s WALL (    1281 calls)
     addusdbec    :      0.33s CPU      0.33s WALL (    1485 calls)
 
     drhodvus     :      0.01s CPU      0.02s WALL (       9 calls)
 
      General routines
     calbec       :      6.29s CPU      6.37s WALL (   35036 calls)
     fft          :      1.01s CPU      1.02s WALL (    2142 calls)
     ffts         :      0.15s CPU      0.16s WALL (     324 calls)
     fftw         :     57.72s CPU     58.20s WALL (  125544 calls)
     davcio       :      0.31s CPU      0.59s WALL (    6818 calls)
     write_rec    :      0.07s CPU      0.35s WALL (      65 calls)
 
 
     PHONON       :   2m 4.08s CPU   2m 6.14s WALL

 
   This run was terminated on:  17: 5:36  24Dec2022            

=------------------------------------------------------------------------------=
   JOB DONE.
=------------------------------------------------------------------------------=
