
     Program PHONON v.6.5 starts on 24Dec2022 at 18:33:10 

     This program is part of the open-source Quantum ESPRESSO suite
     for quantum simulation of materials; please cite
         "P. Giannozzi et al., J. Phys.:Condens. Matter 21 395502 (2009);
         "P. Giannozzi et al., J. Phys.:Condens. Matter 29 465901 (2017);
          URL http://www.quantum-espresso.org", 
     in publications or presentations arising from this work. More details at
     http://www.quantum-espresso.org/quote

     Parallel version (MPI), running on     1 processors

     MPI processes distributed on     1 nodes
      Title line not specified: using 'default'.

     Reading xml data from directory:

     ./out/Si.save/

     IMPORTANT: XC functional enforced from input :
     Exchange-correlation= PBESOL
                           (   1   4  10   8   0   0   0)
     Any further DFT definition will be discarded
     Please, verify this is what you really want

 
     G-vector sticks info
     --------------------
     sticks:   dense  smooth     PW     G-vecs:    dense   smooth      PW
     Sum         859     859    253                16865    16865    2733
 
     Reading collected, re-writing distributed wavefunctions

     Calculation of q =    0.0000000   0.0000000   0.0000000

     default                                                                    

     bravais-lattice index     =            2
     lattice parameter (alat)  =      10.2273  a.u.
     unit-cell volume          =     267.4379 (a.u.)^3
     number of atoms/cell      =            2
     number of atomic types    =            1
     kinetic-energy cut-off    =      60.0000  Ry
     charge density cut-off    =     240.0000  Ry
     convergence threshold     =      1.0E-14
     beta                      =       0.7000
     number of iterations used =            4
     Exchange-correlation= PBESOL
                           (   1   4  10   8   0   0   0)


     celldm(1)=   10.22730  celldm(2)=    0.00000  celldm(3)=    0.00000
     celldm(4)=    0.00000  celldm(5)=    0.00000  celldm(6)=    0.00000

     crystal axes: (cart. coord. in units of alat)
               a(1) = ( -0.5000  0.0000  0.5000 )  
               a(2) = (  0.0000  0.5000  0.5000 )  
               a(3) = ( -0.5000  0.5000  0.0000 )  

     reciprocal axes: (cart. coord. in units 2 pi/alat)
               b(1) = ( -1.0000 -1.0000  1.0000 )  
               b(2) = (  1.0000  1.0000  1.0000 )  
               b(3) = ( -1.0000  1.0000 -1.0000 )  


     Atoms inside the unit cell: 

     Cartesian axes

     site n.  atom      mass           positions (alat units)
        1     Si  28.0855   tau(    1) = (   -0.25000    0.25000    0.25000  )
        2     Si  28.0855   tau(    2) = (   -0.50000    0.50000    0.50000  )

     Computing dynamical matrix for 
                    q = (   0.0000000   0.0000000   0.0000000 )
 
     49 Sym.Ops. (with q -> -q+G )


     G cutoff =  635.8776  (  16865 G-vectors)     FFT grid: ( 36, 36, 36)
     number of k points=     8
                       cart. coord. in units 2pi/alat
        k(    1) = (   0.0000000   0.0000000   0.0000000), wk =   0.0312500
        k(    2) = (  -0.2500000   0.2500000  -0.2500000), wk =   0.2500000
        k(    3) = (   0.5000000  -0.5000000   0.5000000), wk =   0.1250000
        k(    4) = (   0.0000000   0.5000000   0.0000000), wk =   0.1875000
        k(    5) = (   0.7500000  -0.2500000   0.7500000), wk =   0.7500000
        k(    6) = (   0.5000000   0.0000000   0.5000000), wk =   0.3750000
        k(    7) = (   0.0000000  -1.0000000   0.0000000), wk =   0.0937500
        k(    8) = (  -0.5000000  -1.0000000   0.0000000), wk =   0.1875000

     PseudoPot. # 1 for Si read from file:
     ../pseudo/Si.pbesol-n-rrkjus_psl.1.0.0.UPF
     MD5 check sum: c4212819de858c94c3a1644338846ac9
     Pseudo is Ultrasoft + core correction, Zval =  4.0
     Generated using "atomic" code by A. Dal Corso v.6.0 svn rev. 13079
     Using radial grid of 1141 points,  6 beta functions with: 
                l(1) =   0
                l(2) =   0
                l(3) =   1
                l(4) =   1
                l(5) =   2
                l(6) =   2
     Q(r) pseudized with 0 coefficients 


     Mode symmetry, O_h (m-3m)  point group:


     Atomic displacements:
     There are   2 irreducible representations

     Representation     1      3 modes -T_2g G_25' G_5+  To be done

     Representation     2      3 modes -T_1u G_15  G_4-  To be done



     Alpha used in Ewald sum =   2.5000
     PHONON       :      2.76s CPU      2.91s WALL



     Representation #  1 modes #   1  2  3

     Self-consistent Calculation

      iter #   1 total cpu time :     4.1 secs   av.it.:   5.1
      thresh= 1.000E-02 alpha_mix =  0.700 |ddv_scf|^2 =  3.090E-08

      iter #   2 total cpu time :     5.9 secs   av.it.:  10.0
      thresh= 1.758E-05 alpha_mix =  0.700 |ddv_scf|^2 =  1.873E-09

      iter #   3 total cpu time :     7.5 secs   av.it.:   9.9
      thresh= 4.328E-06 alpha_mix =  0.700 |ddv_scf|^2 =  9.402E-11

      iter #   4 total cpu time :     9.1 secs   av.it.:   9.5
      thresh= 9.696E-07 alpha_mix =  0.700 |ddv_scf|^2 =  1.415E-13

      iter #   5 total cpu time :    10.7 secs   av.it.:  10.5
      thresh= 3.762E-08 alpha_mix =  0.700 |ddv_scf|^2 =  2.009E-15

     End of self-consistent calculation

     Convergence has been achieved 


     Representation #  2 modes #   4  5  6

     Self-consistent Calculation

      iter #   1 total cpu time :    12.1 secs   av.it.:   5.4
      thresh= 1.000E-02 alpha_mix =  0.700 |ddv_scf|^2 =  2.961E-08

      iter #   2 total cpu time :    13.7 secs   av.it.:  10.3
      thresh= 1.721E-05 alpha_mix =  0.700 |ddv_scf|^2 =  2.085E-09

      iter #   3 total cpu time :    15.3 secs   av.it.:  10.4
      thresh= 4.566E-06 alpha_mix =  0.700 |ddv_scf|^2 =  1.010E-10

      iter #   4 total cpu time :    17.0 secs   av.it.:  10.3
      thresh= 1.005E-06 alpha_mix =  0.700 |ddv_scf|^2 =  2.622E-13

      iter #   5 total cpu time :    18.7 secs   av.it.:  10.5
      thresh= 5.121E-08 alpha_mix =  0.700 |ddv_scf|^2 =  8.795E-16

     End of self-consistent calculation

     Convergence has been achieved 
 
     Number of q in the star =    1
     List of q in the star:
          1   0.000000000   0.000000000   0.000000000

     Diagonalizing the dynamical matrix

     q = (    0.000000000   0.000000000   0.000000000 ) 

 **************************************************************************
     freq (    1) =      -0.607795 [THz] =     -20.273857 [cm-1]
     freq (    2) =      -0.607795 [THz] =     -20.273857 [cm-1]
     freq (    3) =      -0.607795 [THz] =     -20.273857 [cm-1]
     freq (    4) =      15.724771 [THz] =     524.521903 [cm-1]
     freq (    5) =      15.724771 [THz] =     524.521903 [cm-1]
     freq (    6) =      15.724771 [THz] =     524.521903 [cm-1]
 **************************************************************************

     Mode symmetry, O_h (m-3m)  point group:

     freq (  1 -  3) =        -20.3  [cm-1]   --> T_1u G_15  G_4- I  
     freq (  4 -  6) =        524.5  [cm-1]   --> T_2g G_25' G_5+ R  
 
     PHONON       :     18.30s CPU     18.90s WALL

     INITIALIZATION: 
     phq_setup    :      0.11s CPU      0.13s WALL (       1 calls)
     phq_init     :      1.62s CPU      1.66s WALL (       1 calls)
 
     phq_init     :      1.62s CPU      1.66s WALL (       1 calls)
     set_drhoc    :      0.43s CPU      0.43s WALL (       3 calls)
     init_vloc    :      0.00s CPU      0.00s WALL (       1 calls)
     init_us_1    :      0.38s CPU      0.39s WALL (       1 calls)
     newd         :      0.02s CPU      0.04s WALL (       1 calls)
     dvanqq       :      0.68s CPU      0.68s WALL (       1 calls)
     drho         :      0.35s CPU      0.36s WALL (       1 calls)
 
     DYNAMICAL MATRIX:
     dynmat0      :      0.29s CPU      0.31s WALL (       1 calls)
     phqscf       :     15.53s CPU     15.91s WALL (       1 calls)
     dynmatrix    :      0.00s CPU      0.02s WALL (       1 calls)
 
     phqscf       :     15.53s CPU     15.91s WALL (       1 calls)
     solve_linter :     15.46s CPU     15.79s WALL (       2 calls)
     drhodv       :      0.07s CPU      0.07s WALL (       2 calls)
 
     dynmat0      :      0.29s CPU      0.31s WALL (       1 calls)
     dynmat_us    :      0.02s CPU      0.02s WALL (       1 calls)
     d2ionq       :      0.00s CPU      0.00s WALL (       1 calls)
     dynmatcc     :      0.27s CPU      0.27s WALL (       1 calls)
 
     dynmat_us    :      0.02s CPU      0.02s WALL (       1 calls)
     addusdynmat  :      0.00s CPU      0.00s WALL (       1 calls)
 
     phqscf       :     15.53s CPU     15.91s WALL (       1 calls)
     solve_linter :     15.46s CPU     15.79s WALL (       2 calls)
 
     solve_linter :     15.46s CPU     15.79s WALL (       2 calls)
     dvqpsi_us    :      0.26s CPU      0.27s WALL (      48 calls)
     ortho        :      0.11s CPU      0.11s WALL (     240 calls)
     cgsolve      :      8.67s CPU      8.76s WALL (     240 calls)
     incdrhoscf   :      0.80s CPU      0.83s WALL (     240 calls)
     addusddens   :      1.11s CPU      1.13s WALL (      12 calls)
     vpsifft      :      0.57s CPU      0.59s WALL (     192 calls)
     dv_of_drho   :      0.21s CPU      0.23s WALL (      30 calls)
     mix_pot      :      0.03s CPU      0.09s WALL (      10 calls)
     psymdvscf    :      1.53s CPU      1.54s WALL (      10 calls)
     newdq        :      2.10s CPU      2.11s WALL (      10 calls)
     adddvscf     :      0.05s CPU      0.06s WALL (     192 calls)
     drhodvus     :      0.01s CPU      0.01s WALL (       2 calls)
 
     dvqpsi_us    :      0.26s CPU      0.27s WALL (      48 calls)
     dvqpsi_us_on :      0.09s CPU      0.10s WALL (      48 calls)
 
     cgsolve      :      8.67s CPU      8.76s WALL (     240 calls)
     ch_psi       :      8.45s CPU      8.54s WALL (    2562 calls)
 
     ch_psi       :      8.45s CPU      8.54s WALL (    2562 calls)
     h_psi        :      6.76s CPU      6.83s WALL (    2562 calls)
     last         :      1.16s CPU      1.18s WALL (    2562 calls)
 
     h_psi        :      6.76s CPU      6.83s WALL (    2562 calls)
     add_vuspsi   :      0.42s CPU      0.43s WALL (    2562 calls)
 
     incdrhoscf   :      0.80s CPU      0.83s WALL (     240 calls)
     addusdbec    :      0.06s CPU      0.06s WALL (     288 calls)
 
     drhodvus     :      0.01s CPU      0.01s WALL (       2 calls)
 
      General routines
     calbec       :      1.04s CPU      1.05s WALL (    5924 calls)
     fft          :      0.15s CPU      0.16s WALL (     541 calls)
     ffts         :      0.02s CPU      0.02s WALL (      66 calls)
     fftw         :      5.95s CPU      6.01s WALL (   22438 calls)
     davcio       :      0.06s CPU      0.11s WALL (     932 calls)
     write_rec    :      0.01s CPU      0.10s WALL (      12 calls)
 
 
     PHONON       :     18.30s CPU     18.90s WALL

 
   This run was terminated on:  18:33:29  24Dec2022            

=------------------------------------------------------------------------------=
   JOB DONE.
=------------------------------------------------------------------------------=
