
     Program PHONON v.6.5 starts on 24Dec2022 at 18:33:31 

     This program is part of the open-source Quantum ESPRESSO suite
     for quantum simulation of materials; please cite
         "P. Giannozzi et al., J. Phys.:Condens. Matter 21 395502 (2009);
         "P. Giannozzi et al., J. Phys.:Condens. Matter 29 465901 (2017);
          URL http://www.quantum-espresso.org", 
     in publications or presentations arising from this work. More details at
     http://www.quantum-espresso.org/quote

     Parallel version (MPI), running on     1 processors

     MPI processes distributed on     1 nodes
      Title line not specified: using 'default'.

     Reading xml data from directory:

     ./out/Si.save/

     IMPORTANT: XC functional enforced from input :
     Exchange-correlation= PBESOL
                           (   1   4  10   8   0   0   0)
     Any further DFT definition will be discarded
     Please, verify this is what you really want

 
     G-vector sticks info
     --------------------
     sticks:   dense  smooth     PW     G-vecs:    dense   smooth      PW
     Sum         859     859    253                16865    16865    2733
 
     Reading collected, re-writing distributed wavefunctions

     Calculation of q =    1.0000000   0.0000000   0.0000000

     Subspace diagonalization in iterative solution of the eigenvalue problem:
     a serial algorithm will be used

 
     G-vector sticks info
     --------------------
     sticks:   dense  smooth     PW     G-vecs:    dense   smooth      PW
     Sum         859     859    295                16865    16865    3215
 

     Title: 
     default                                                                    


     bravais-lattice index     =            2
     lattice parameter (alat)  =      10.2273  a.u.
     unit-cell volume          =     267.4379 (a.u.)^3
     number of atoms/cell      =            2
     number of atomic types    =            1
     number of electrons       =         8.00
     number of Kohn-Sham states=            4
     kinetic-energy cutoff     =      60.0000  Ry
     charge density cutoff     =     240.0000  Ry
     Exchange-correlation= PBESOL
                           (   1   4  10   8   0   0   0)

     celldm(1)=  10.227300  celldm(2)=   0.000000  celldm(3)=   0.000000
     celldm(4)=   0.000000  celldm(5)=   0.000000  celldm(6)=   0.000000

     crystal axes: (cart. coord. in units of alat)
               a(1) = (  -0.500000   0.000000   0.500000 )  
               a(2) = (   0.000000   0.500000   0.500000 )  
               a(3) = (  -0.500000   0.500000   0.000000 )  

     reciprocal axes: (cart. coord. in units 2 pi/alat)
               b(1) = ( -1.000000 -1.000000  1.000000 )  
               b(2) = (  1.000000  1.000000  1.000000 )  
               b(3) = ( -1.000000  1.000000 -1.000000 )  


     PseudoPot. # 1 for Si read from file:
     ../pseudo/Si.pbesol-n-rrkjus_psl.1.0.0.UPF
     MD5 check sum: c4212819de858c94c3a1644338846ac9
     Pseudo is Ultrasoft + core correction, Zval =  4.0
     Generated using "atomic" code by A. Dal Corso v.6.0 svn rev. 13079
     Using radial grid of 1141 points,  6 beta functions with: 
                l(1) =   0
                l(2) =   0
                l(3) =   1
                l(4) =   1
                l(5) =   2
                l(6) =   2
     Q(r) pseudized with 0 coefficients 


     atomic species   valence    mass     pseudopotential
        Si             4.00    28.08550     Si( 1.00)

     48 Sym. Ops., with inversion, found



   Cartesian axes

     site n.     atom                  positions (alat units)
         1           Si  tau(   1) = (  -0.2500000   0.2500000   0.2500000  )
         2           Si  tau(   2) = (  -0.5000000   0.5000000   0.5000000  )

     number of k points=    26
                       cart. coord. in units 2pi/alat
        k(    1) = (   0.0000000   0.0000000   0.0000000), wk =   0.0312500
        k(    2) = (   1.0000000   0.0000000   0.0000000), wk =   0.0000000
        k(    3) = (  -0.2500000   0.2500000  -0.2500000), wk =   0.2500000
        k(    4) = (   0.7500000   0.2500000  -0.2500000), wk =   0.0000000
        k(    5) = (   0.5000000  -0.5000000   0.5000000), wk =   0.1250000
        k(    6) = (   1.5000000  -0.5000000   0.5000000), wk =   0.0000000
        k(    7) = (   0.0000000   0.5000000   0.0000000), wk =   0.1250000
        k(    8) = (   1.0000000   0.5000000   0.0000000), wk =   0.0000000
        k(    9) = (   0.7500000  -0.2500000   0.7500000), wk =   0.5000000
        k(   10) = (   1.7500000  -0.2500000   0.7500000), wk =   0.0000000
        k(   11) = (   0.5000000   0.0000000   0.5000000), wk =   0.2500000
        k(   12) = (   1.5000000   0.0000000   0.5000000), wk =   0.0000000
        k(   13) = (   0.0000000  -1.0000000   0.0000000), wk =   0.0625000
        k(   14) = (   1.0000000  -1.0000000   0.0000000), wk =   0.0000000
        k(   15) = (  -0.5000000  -1.0000000   0.0000000), wk =   0.0625000
        k(   16) = (   0.5000000  -1.0000000   0.0000000), wk =   0.0000000
        k(   17) = (   0.5000000   0.0000000   0.0000000), wk =   0.0625000
        k(   18) = (   1.5000000   0.0000000   0.0000000), wk =   0.0000000
        k(   19) = (  -0.2500000   0.7500000   0.7500000), wk =   0.2500000
        k(   20) = (   0.7500000   0.7500000   0.7500000), wk =   0.0000000
        k(   21) = (   0.0000000   0.5000000   0.5000000), wk =   0.1250000
        k(   22) = (   1.0000000   0.5000000   0.5000000), wk =   0.0000000
        k(   23) = (  -1.0000000   0.0000000   0.0000000), wk =   0.0312500
        k(   24) = (   0.0000000   0.0000000   0.0000000), wk =   0.0000000
        k(   25) = (  -1.0000000   0.0000000  -0.5000000), wk =   0.1250000
        k(   26) = (   0.0000000   0.0000000  -0.5000000), wk =   0.0000000

     Dense  grid:    16865 G-vectors     FFT dimensions: (  36,  36,  36)

     Estimated max dynamical RAM per process >      57.25 MB

     The potential is recalculated from file :
     ./out/_ph0/Si.save/charge-density

     Starting wfcs are    8 atomic wfcs

     Band Structure Calculation
     Davidson diagonalization with overlap

     ethr =  1.25E-10,  avg # of iterations = 11.9

     total cpu time spent up to now is        1.7 secs

     End of band structure calculation

          k = 0.0000 0.0000 0.0000 (  2085 PWs)   bands (ev):

    -5.7619   6.3097   6.3097   6.3097

          k = 1.0000 0.0000 0.0000 (  2100 PWs)   bands (ev):

    -1.5614  -1.5614   3.3964   3.3964

          k =-0.2500 0.2500-0.2500 (  2091 PWs)   bands (ev):

    -4.9510   2.3285   5.5332   5.5332

          k = 0.7500 0.2500-0.2500 (  2101 PWs)   bands (ev):

    -3.0004  -0.1288   2.6835   4.0560

          k = 0.5000-0.5000 0.5000 (  2120 PWs)   bands (ev):

    -3.3831  -0.7686   5.0916   5.0916

          k = 1.5000-0.5000 0.5000 (  2120 PWs)   bands (ev):

    -3.3831  -0.7686   5.0916   5.0916

          k = 0.0000 0.5000 0.0000 (  2085 PWs)   bands (ev):

    -4.6658   2.7878   4.3726   4.3726

          k = 1.0000 0.5000 0.0000 (  2120 PWs)   bands (ev):

    -1.3853  -1.3853   2.3415   2.3415

          k = 0.7500-0.2500 0.7500 (  2101 PWs)   bands (ev):

    -3.0004  -0.1288   2.6835   4.0560

          k = 1.7500-0.2500 0.7500 (  2101 PWs)   bands (ev):

    -3.0004  -0.1288   2.6835   4.0560

          k = 0.5000 0.0000 0.5000 (  2099 PWs)   bands (ev):

    -3.6868   0.7898   2.4496   4.9547

          k = 1.5000 0.0000 0.5000 (  2099 PWs)   bands (ev):

    -3.6868   0.7898   2.4496   4.9547

          k = 0.0000-1.0000 0.0000 (  2100 PWs)   bands (ev):

    -1.5614  -1.5614   3.3964   3.3964

          k = 1.0000-1.0000 0.0000 (  2100 PWs)   bands (ev):

    -1.5614  -1.5614   3.3964   3.3964

          k =-0.5000-1.0000 0.0000 (  2120 PWs)   bands (ev):

    -1.3853  -1.3853   2.3415   2.3415

          k = 0.5000-1.0000 0.0000 (  2120 PWs)   bands (ev):

    -1.3853  -1.3853   2.3415   2.3415

          k = 0.5000 0.0000 0.0000 (  2085 PWs)   bands (ev):

    -4.6658   2.7878   4.3726   4.3726

          k = 1.5000 0.0000 0.0000 (  2085 PWs)   bands (ev):

    -4.6658   2.7878   4.3726   4.3726

          k =-0.2500 0.7500 0.7500 (  2101 PWs)   bands (ev):

    -3.0004  -0.1288   2.6835   4.0560

          k = 0.7500 0.7500 0.7500 (  2091 PWs)   bands (ev):

    -4.9510   2.3285   5.5332   5.5332

          k = 0.0000 0.5000 0.5000 (  2099 PWs)   bands (ev):

    -3.6868   0.7898   2.4496   4.9547

          k = 1.0000 0.5000 0.5000 (  2099 PWs)   bands (ev):

    -3.6868   0.7898   2.4496   4.9547

          k =-1.0000 0.0000 0.0000 (  2100 PWs)   bands (ev):

    -1.5614  -1.5614   3.3964   3.3964

          k = 0.0000 0.0000 0.0000 (  2085 PWs)   bands (ev):

    -5.7619   6.3097   6.3097   6.3097

          k =-1.0000 0.0000-0.5000 (  2120 PWs)   bands (ev):

    -1.3853  -1.3853   2.3415   2.3415

          k = 0.0000 0.0000-0.5000 (  2085 PWs)   bands (ev):

    -4.6658   2.7878   4.3726   4.3726

     highest occupied level (ev):     6.3097

     Writing output data file ./out/_ph0/Si.save/

     default                                                                    

     bravais-lattice index     =            2
     lattice parameter (alat)  =      10.2273  a.u.
     unit-cell volume          =     267.4379 (a.u.)^3
     number of atoms/cell      =            2
     number of atomic types    =            1
     kinetic-energy cut-off    =      60.0000  Ry
     charge density cut-off    =     240.0000  Ry
     convergence threshold     =      1.0E-14
     beta                      =       0.7000
     number of iterations used =            4
     Exchange-correlation= PBESOL
                           (   1   4  10   8   0   0   0)


     celldm(1)=   10.22730  celldm(2)=    0.00000  celldm(3)=    0.00000
     celldm(4)=    0.00000  celldm(5)=    0.00000  celldm(6)=    0.00000

     crystal axes: (cart. coord. in units of alat)
               a(1) = ( -0.5000  0.0000  0.5000 )  
               a(2) = (  0.0000  0.5000  0.5000 )  
               a(3) = ( -0.5000  0.5000  0.0000 )  

     reciprocal axes: (cart. coord. in units 2 pi/alat)
               b(1) = ( -1.0000 -1.0000  1.0000 )  
               b(2) = (  1.0000  1.0000  1.0000 )  
               b(3) = ( -1.0000  1.0000 -1.0000 )  


     Atoms inside the unit cell: 

     Cartesian axes

     site n.  atom      mass           positions (alat units)
        1     Si  28.0855   tau(    1) = (   -0.25000    0.25000    0.25000  )
        2     Si  28.0855   tau(    2) = (   -0.50000    0.50000    0.50000  )

     Computing dynamical matrix for 
                    q = (   1.0000000   0.0000000   0.0000000 )
 
     17 Sym.Ops. (with q -> -q+G )


     G cutoff =  635.8776  (  16865 G-vectors)     FFT grid: ( 36, 36, 36)
     number of k points=    26
                       cart. coord. in units 2pi/alat
        k(    1) = (   0.0000000   0.0000000   0.0000000), wk =   0.0312500
        k(    2) = (   1.0000000   0.0000000   0.0000000), wk =   0.0000000
        k(    3) = (  -0.2500000   0.2500000  -0.2500000), wk =   0.2500000
        k(    4) = (   0.7500000   0.2500000  -0.2500000), wk =   0.0000000
        k(    5) = (   0.5000000  -0.5000000   0.5000000), wk =   0.1250000
        k(    6) = (   1.5000000  -0.5000000   0.5000000), wk =   0.0000000
        k(    7) = (   0.0000000   0.5000000   0.0000000), wk =   0.1250000
        k(    8) = (   1.0000000   0.5000000   0.0000000), wk =   0.0000000
        k(    9) = (   0.7500000  -0.2500000   0.7500000), wk =   0.5000000
        k(   10) = (   1.7500000  -0.2500000   0.7500000), wk =   0.0000000
        k(   11) = (   0.5000000   0.0000000   0.5000000), wk =   0.2500000
        k(   12) = (   1.5000000   0.0000000   0.5000000), wk =   0.0000000
        k(   13) = (   0.0000000  -1.0000000   0.0000000), wk =   0.0625000
        k(   14) = (   1.0000000  -1.0000000   0.0000000), wk =   0.0000000
        k(   15) = (  -0.5000000  -1.0000000   0.0000000), wk =   0.0625000
        k(   16) = (   0.5000000  -1.0000000   0.0000000), wk =   0.0000000
        k(   17) = (   0.5000000   0.0000000   0.0000000), wk =   0.0625000
        k(   18) = (   1.5000000   0.0000000   0.0000000), wk =   0.0000000
        k(   19) = (  -0.2500000   0.7500000   0.7500000), wk =   0.2500000
        k(   20) = (   0.7500000   0.7500000   0.7500000), wk =   0.0000000
        k(   21) = (   0.0000000   0.5000000   0.5000000), wk =   0.1250000
        k(   22) = (   1.0000000   0.5000000   0.5000000), wk =   0.0000000
        k(   23) = (  -1.0000000   0.0000000   0.0000000), wk =   0.0312500
        k(   24) = (   0.0000000   0.0000000   0.0000000), wk =   0.0000000
        k(   25) = (  -1.0000000   0.0000000  -0.5000000), wk =   0.1250000
        k(   26) = (   0.0000000   0.0000000  -0.5000000), wk =   0.0000000

     PseudoPot. # 1 for Si read from file:
     ../pseudo/Si.pbesol-n-rrkjus_psl.1.0.0.UPF
     MD5 check sum: c4212819de858c94c3a1644338846ac9
     Pseudo is Ultrasoft + core correction, Zval =  4.0
     Generated using "atomic" code by A. Dal Corso v.6.0 svn rev. 13079
     Using radial grid of 1141 points,  6 beta functions with: 
                l(1) =   0
                l(2) =   0
                l(3) =   1
                l(4) =   1
                l(5) =   2
                l(6) =   2
     Q(r) pseudized with 0 coefficients 



     Atomic displacements:
     There are   3 irreducible representations

     Representation     1      2 modes -  To be done

     Representation     2      2 modes -  To be done

     Representation     3      2 modes -  To be done



     Alpha used in Ewald sum =   2.5000
     PHONON       :      4.54s CPU      4.67s WALL



     Representation #  1 modes #   1  2

     Self-consistent Calculation

      iter #   1 total cpu time :     5.8 secs   av.it.:   4.9
      thresh= 1.000E-02 alpha_mix =  0.700 |ddv_scf|^2 =  4.586E-08

      iter #   2 total cpu time :     7.4 secs   av.it.:   9.2
      thresh= 2.142E-05 alpha_mix =  0.700 |ddv_scf|^2 =  3.262E-09

      iter #   3 total cpu time :     9.0 secs   av.it.:   9.5
      thresh= 5.712E-06 alpha_mix =  0.700 |ddv_scf|^2 =  7.314E-12

      iter #   4 total cpu time :    10.5 secs   av.it.:   9.7
      thresh= 2.705E-07 alpha_mix =  0.700 |ddv_scf|^2 =  1.062E-13

      iter #   5 total cpu time :    12.1 secs   av.it.:   9.9
      thresh= 3.258E-08 alpha_mix =  0.700 |ddv_scf|^2 =  3.908E-16

     End of self-consistent calculation

     Convergence has been achieved 


     Representation #  2 modes #   3  4

     Self-consistent Calculation

      iter #   1 total cpu time :    13.4 secs   av.it.:   5.7
      thresh= 1.000E-02 alpha_mix =  0.700 |ddv_scf|^2 =  5.514E-07

      iter #   2 total cpu time :    15.0 secs   av.it.:   9.8
      thresh= 7.426E-05 alpha_mix =  0.700 |ddv_scf|^2 =  1.498E-07

      iter #   3 total cpu time :    16.5 secs   av.it.:   9.7
      thresh= 3.870E-05 alpha_mix =  0.700 |ddv_scf|^2 =  1.143E-09

      iter #   4 total cpu time :    18.0 secs   av.it.:   9.3
      thresh= 3.381E-06 alpha_mix =  0.700 |ddv_scf|^2 =  5.457E-13

      iter #   5 total cpu time :    19.6 secs   av.it.:   9.8
      thresh= 7.387E-08 alpha_mix =  0.700 |ddv_scf|^2 =  1.943E-14

      iter #   6 total cpu time :    21.1 secs   av.it.:   9.7
      thresh= 1.394E-08 alpha_mix =  0.700 |ddv_scf|^2 =  5.240E-17

     End of self-consistent calculation

     Convergence has been achieved 


     Representation #  3 modes #   5  6

     Self-consistent Calculation

      iter #   1 total cpu time :    22.5 secs   av.it.:   6.0
      thresh= 1.000E-02 alpha_mix =  0.700 |ddv_scf|^2 =  3.110E-06

      iter #   2 total cpu time :    24.1 secs   av.it.:   9.8
      thresh= 1.764E-04 alpha_mix =  0.700 |ddv_scf|^2 =  4.417E-06

      iter #   3 total cpu time :    25.6 secs   av.it.:   9.3
      thresh= 2.102E-04 alpha_mix =  0.700 |ddv_scf|^2 =  2.010E-09

      iter #   4 total cpu time :    27.1 secs   av.it.:   9.8
      thresh= 4.483E-06 alpha_mix =  0.700 |ddv_scf|^2 =  1.106E-10

      iter #   5 total cpu time :    28.7 secs   av.it.:  10.2
      thresh= 1.052E-06 alpha_mix =  0.700 |ddv_scf|^2 =  8.953E-13

      iter #   6 total cpu time :    30.3 secs   av.it.:  10.2
      thresh= 9.462E-08 alpha_mix =  0.700 |ddv_scf|^2 =  1.750E-14

      iter #   7 total cpu time :    31.9 secs   av.it.:   9.8
      thresh= 1.323E-08 alpha_mix =  0.700 |ddv_scf|^2 =  2.275E-16

     End of self-consistent calculation

     Convergence has been achieved 
 
     Number of q in the star =    3
     List of q in the star:
          1   1.000000000   0.000000000   0.000000000
          2   0.000000000   0.000000000   1.000000000
          3   0.000000000   1.000000000   0.000000000

     Diagonalizing the dynamical matrix

     q = (    1.000000000   0.000000000   0.000000000 ) 

 **************************************************************************
     freq (    1) =       3.607658 [THz] =     120.338519 [cm-1]
     freq (    2) =       3.607658 [THz] =     120.338519 [cm-1]
     freq (    3) =      12.185418 [THz] =     406.461797 [cm-1]
     freq (    4) =      12.185418 [THz] =     406.461797 [cm-1]
     freq (    5) =      13.857290 [THz] =     462.229440 [cm-1]
     freq (    6) =      13.857290 [THz] =     462.229440 [cm-1]
 **************************************************************************
 
     init_run     :      0.37s CPU      0.40s WALL (       1 calls)
     electrons    :      1.28s CPU      1.30s WALL (       1 calls)

     Called by init_run:
     wfcinit      :      0.00s CPU      0.00s WALL (       1 calls)
     potinit      :      0.01s CPU      0.02s WALL (       1 calls)
     hinit0       :      0.31s CPU      0.31s WALL (       1 calls)

     Called by electrons:
     c_bands      :      1.28s CPU      1.30s WALL (       1 calls)
     v_of_rho     :      0.03s CPU      0.03s WALL (       2 calls)
     newd         :      0.04s CPU      0.09s WALL (       2 calls)

     Called by c_bands:
     init_us_2    :      0.22s CPU      0.24s WALL (     351 calls)
     cegterg      :      0.99s CPU      1.00s WALL (      26 calls)

     Called by sum_band:

     Called by *egterg:
     h_psi        :     13.31s CPU     13.43s WALL (    5313 calls)
     s_psi        :      1.76s CPU      1.78s WALL (   10732 calls)
     g_psi        :      0.01s CPU      0.01s WALL (     310 calls)
     cdiaghg      :      0.02s CPU      0.02s WALL (     336 calls)

     Called by h_psi:
     h_psi:calbec :      0.91s CPU      0.92s WALL (    5313 calls)
     vloc_psi     :     11.45s CPU     11.55s WALL (    5313 calls)
     add_vuspsi   :      0.86s CPU      0.87s WALL (    5313 calls)

     General routines
     calbec       :      1.97s CPU      2.00s WALL (   11772 calls)
     fft          :      0.17s CPU      0.18s WALL (     637 calls)
     ffts         :      0.03s CPU      0.03s WALL (     102 calls)
     fftw         :     11.41s CPU     11.54s WALL (   45674 calls)
     davcio       :      0.09s CPU      0.17s WALL (    2158 calls)
 
     Parallel routines
 
     PHONON       :     31.34s CPU     32.00s WALL

     INITIALIZATION: 
     phq_setup    :      0.09s CPU      0.10s WALL (       1 calls)
     phq_init     :      1.90s CPU      1.91s WALL (       1 calls)
 
     phq_init     :      1.90s CPU      1.91s WALL (       1 calls)
     set_drhoc    :      0.42s CPU      0.42s WALL (       3 calls)
     init_vloc    :      0.01s CPU      0.01s WALL (       2 calls)
     init_us_1    :      0.67s CPU      0.67s WALL (       2 calls)
     newd         :      0.04s CPU      0.09s WALL (       2 calls)
     dvanqq       :      0.73s CPU      0.73s WALL (       1 calls)
     drho         :      0.58s CPU      0.59s WALL (       1 calls)
 
     DYNAMICAL MATRIX:
     dynmat0      :      0.31s CPU      0.31s WALL (       1 calls)
     phqscf       :     26.80s CPU     27.29s WALL (       1 calls)
     dynmatrix    :      0.00s CPU      0.00s WALL (       1 calls)
 
     phqscf       :     26.80s CPU     27.29s WALL (       1 calls)
     solve_linter :     26.68s CPU     27.10s WALL (       3 calls)
     drhodv       :      0.11s CPU      0.12s WALL (       3 calls)
 
     dynmat0      :      0.31s CPU      0.31s WALL (       1 calls)
     dynmat_us    :      0.03s CPU      0.04s WALL (       1 calls)
     d2ionq       :      0.00s CPU      0.00s WALL (       1 calls)
     dynmatcc     :      0.27s CPU      0.27s WALL (       1 calls)
 
     dynmat_us    :      0.03s CPU      0.04s WALL (       1 calls)
     addusdynmat  :      0.00s CPU      0.00s WALL (       1 calls)
 
     phqscf       :     26.80s CPU     27.29s WALL (       1 calls)
     solve_linter :     26.68s CPU     27.10s WALL (       3 calls)
 
     solve_linter :     26.68s CPU     27.10s WALL (       3 calls)
     dvqpsi_us    :      0.36s CPU      0.36s WALL (      78 calls)
     ortho        :      0.21s CPU      0.21s WALL (     468 calls)
     cgsolve      :     15.87s CPU     16.02s WALL (     468 calls)
     incdrhoscf   :      1.45s CPU      1.49s WALL (     468 calls)
     addusddens   :      2.59s CPU      2.60s WALL (      21 calls)
     vpsifft      :      1.02s CPU      1.05s WALL (     390 calls)
     dv_of_drho   :      0.25s CPU      0.26s WALL (      36 calls)
     mix_pot      :      0.04s CPU      0.12s WALL (      18 calls)
     psymdvscf    :      0.69s CPU      0.70s WALL (      18 calls)
     newdq        :      4.06s CPU      4.06s WALL (      18 calls)
     adddvscf     :      0.10s CPU      0.10s WALL (     390 calls)
     drhodvus     :      0.00s CPU      0.01s WALL (       3 calls)
 
     dvqpsi_us    :      0.36s CPU      0.36s WALL (      78 calls)
     dvqpsi_us_on :      0.10s CPU      0.10s WALL (      78 calls)
 
     cgsolve      :     15.87s CPU     16.02s WALL (     468 calls)
     ch_psi       :     15.49s CPU     15.63s WALL (    4951 calls)
 
     ch_psi       :     15.49s CPU     15.63s WALL (    4951 calls)
     h_psi        :     13.31s CPU     13.43s WALL (    5313 calls)
     last         :      2.14s CPU      2.16s WALL (    4951 calls)
 
     h_psi        :     13.31s CPU     13.43s WALL (    5313 calls)
     add_vuspsi   :      0.86s CPU      0.87s WALL (    5313 calls)
 
     incdrhoscf   :      1.45s CPU      1.49s WALL (     468 calls)
     addusdbec    :      0.11s CPU      0.11s WALL (     546 calls)
 
     drhodvus     :      0.00s CPU      0.01s WALL (       3 calls)
 
      General routines
     calbec       :      1.97s CPU      2.00s WALL (   11772 calls)
     fft          :      0.17s CPU      0.18s WALL (     637 calls)
     ffts         :      0.03s CPU      0.03s WALL (     102 calls)
     fftw         :     11.41s CPU     11.54s WALL (   45674 calls)
     davcio       :      0.09s CPU      0.17s WALL (    2158 calls)
     write_rec    :      0.02s CPU      0.13s WALL (      21 calls)
 
 
     PHONON       :     31.34s CPU     32.00s WALL

 
   This run was terminated on:  18:34: 3  24Dec2022            

=------------------------------------------------------------------------------=
   JOB DONE.
=------------------------------------------------------------------------------=
