
     Program PWSCF v.6.5 starts on 24Dec2022 at 18:32:33 

     This program is part of the open-source Quantum ESPRESSO suite
     for quantum simulation of materials; please cite
         "P. Giannozzi et al., J. Phys.:Condens. Matter 21 395502 (2009);
         "P. Giannozzi et al., J. Phys.:Condens. Matter 29 465901 (2017);
          URL http://www.quantum-espresso.org", 
     in publications or presentations arising from this work. More details at
     http://www.quantum-espresso.org/quote

     Parallel version (MPI), running on     1 processors

     MPI processes distributed on     1 nodes
     Waiting for input...
     Reading input from standard input
Warning: card &IONS ignored
Warning: card / ignored
Warning: card &CELL ignored
Warning: card / ignored

     Current dimensions of program PWSCF are:
     Max number of different atomic species (ntypx) = 10
     Max number of k-points (npk) =  40000
     Max angular momentum in pseudopotentials (lmaxx) =  3

     Subspace diagonalization in iterative solution of the eigenvalue problem:
     a serial algorithm will be used

 
     G-vector sticks info
     --------------------
     sticks:   dense  smooth     PW     G-vecs:    dense   smooth      PW
     Sum         859     859    253                16865    16865    2733
 


     bravais-lattice index     =            2
     lattice parameter (alat)  =      10.2273  a.u.
     unit-cell volume          =     267.4379 (a.u.)^3
     number of atoms/cell      =            2
     number of atomic types    =            1
     number of electrons       =         8.00
     number of Kohn-Sham states=            4
     kinetic-energy cutoff     =      60.0000  Ry
     charge density cutoff     =     240.0000  Ry
     convergence threshold     =      1.0E-06
     mixing beta               =       0.7000
     number of iterations used =            8  plain     mixing
     Exchange-correlation= PBESOL
                           (   1   4  10   8   0   0   0)

     celldm(1)=  10.227300  celldm(2)=   0.000000  celldm(3)=   0.000000
     celldm(4)=   0.000000  celldm(5)=   0.000000  celldm(6)=   0.000000

     crystal axes: (cart. coord. in units of alat)
               a(1) = (  -0.500000   0.000000   0.500000 )  
               a(2) = (   0.000000   0.500000   0.500000 )  
               a(3) = (  -0.500000   0.500000   0.000000 )  

     reciprocal axes: (cart. coord. in units 2 pi/alat)
               b(1) = ( -1.000000 -1.000000  1.000000 )  
               b(2) = (  1.000000  1.000000  1.000000 )  
               b(3) = ( -1.000000  1.000000 -1.000000 )  


     PseudoPot. # 1 for Si read from file:
     ../pseudo/Si.pbesol-n-rrkjus_psl.1.0.0.UPF
     MD5 check sum: c4212819de858c94c3a1644338846ac9
     Pseudo is Ultrasoft + core correction, Zval =  4.0
     Generated using "atomic" code by A. Dal Corso v.6.0 svn rev. 13079
     Using radial grid of 1141 points,  6 beta functions with: 
                l(1) =   0
                l(2) =   0
                l(3) =   1
                l(4) =   1
                l(5) =   2
                l(6) =   2
     Q(r) pseudized with 0 coefficients 


     atomic species   valence    mass     pseudopotential
        Si             4.00    28.08550     Si( 1.00)

     48 Sym. Ops., with inversion, found (24 have fractional translation)



   Cartesian axes

     site n.     atom                  positions (alat units)
         1           Si  tau(   1) = (  -0.2500000   0.2500000   0.2500000  )
         2           Si  tau(   2) = (  -0.5000000   0.5000000   0.5000000  )

     number of k points=     8
                       cart. coord. in units 2pi/alat
        k(    1) = (   0.0000000   0.0000000   0.0000000), wk =   0.0312500
        k(    2) = (  -0.2500000   0.2500000  -0.2500000), wk =   0.2500000
        k(    3) = (   0.5000000  -0.5000000   0.5000000), wk =   0.1250000
        k(    4) = (   0.0000000   0.5000000   0.0000000), wk =   0.1875000
        k(    5) = (   0.7500000  -0.2500000   0.7500000), wk =   0.7500000
        k(    6) = (   0.5000000   0.0000000   0.5000000), wk =   0.3750000
        k(    7) = (   0.0000000  -1.0000000   0.0000000), wk =   0.0937500
        k(    8) = (  -0.5000000  -1.0000000   0.0000000), wk =   0.1875000

     Dense  grid:    16865 G-vectors     FFT dimensions: (  36,  36,  36)

     Estimated max dynamical RAM per process >      62.92 MB

     Initial potential from superposition of free atoms

     starting charge    7.99892, renormalised to    8.00000
     Starting wfcs are    8 randomized atomic wfcs

     total cpu time spent up to now is        1.0 secs

     Self-consistent Calculation

     iteration #  1     ecut=    60.00 Ry     beta= 0.70
     Davidson diagonalization with overlap
     ethr =  1.00E-02,  avg # of iterations =  2.0

     Threshold (ethr) on eigenvalues was too large:
     Diagonalizing with lowered threshold

     Davidson diagonalization with overlap
     ethr =  7.60E-04,  avg # of iterations =  1.4

     total cpu time spent up to now is        1.4 secs

     total energy              =     -22.65987525 Ry
     Harris-Foulkes estimate   =     -22.67983868 Ry
     estimated scf accuracy    <       0.06085354 Ry

     iteration #  2     ecut=    60.00 Ry     beta= 0.70
     Davidson diagonalization with overlap
     ethr =  7.61E-04,  avg # of iterations =  1.0

     total cpu time spent up to now is        1.7 secs

     total energy              =     -22.66239839 Ry
     Harris-Foulkes estimate   =     -22.66284575 Ry
     estimated scf accuracy    <       0.00248035 Ry

     iteration #  3     ecut=    60.00 Ry     beta= 0.70
     Davidson diagonalization with overlap
     ethr =  3.10E-05,  avg # of iterations =  2.6

     total cpu time spent up to now is        1.9 secs

     total energy              =     -22.66311050 Ry
     Harris-Foulkes estimate   =     -22.66319285 Ry
     estimated scf accuracy    <       0.00015811 Ry

     iteration #  4     ecut=    60.00 Ry     beta= 0.70
     Davidson diagonalization with overlap
     ethr =  1.98E-06,  avg # of iterations =  2.2

     total cpu time spent up to now is        2.2 secs

     total energy              =     -22.66313207 Ry
     Harris-Foulkes estimate   =     -22.66317119 Ry
     estimated scf accuracy    <       0.00007425 Ry

     iteration #  5     ecut=    60.00 Ry     beta= 0.70
     Davidson diagonalization with overlap
     ethr =  9.28E-07,  avg # of iterations =  2.0

     total cpu time spent up to now is        2.4 secs

     End of self-consistent calculation

          k = 0.0000 0.0000 0.0000 (  2085 PWs)   bands (ev):

    -5.7611   6.3108   6.3108   6.3108

          k =-0.2500 0.2500-0.2500 (  2091 PWs)   bands (ev):

    -4.9502   2.3294   5.5343   5.5343

          k = 0.5000-0.5000 0.5000 (  2120 PWs)   bands (ev):

    -3.3821  -0.7680   5.0926   5.0926

          k = 0.0000 0.5000 0.0000 (  2085 PWs)   bands (ev):

    -4.6650   2.7889   4.3735   4.3735

          k = 0.7500-0.2500 0.7500 (  2101 PWs)   bands (ev):

    -2.9994  -0.1279   2.6841   4.0569

          k = 0.5000 0.0000 0.5000 (  2099 PWs)   bands (ev):

    -3.6859   0.7908   2.4502   4.9557

          k = 0.0000-1.0000 0.0000 (  2100 PWs)   bands (ev):

    -1.5604  -1.5604   3.3973   3.3973

          k =-0.5000-1.0000 0.0000 (  2120 PWs)   bands (ev):

    -1.3843  -1.3843   2.3421   2.3421

     highest occupied level (ev):     6.3108

!    total energy              =     -22.66314105 Ry
     Harris-Foulkes estimate   =     -22.66314109 Ry
     estimated scf accuracy    <       0.00000011 Ry

     The total energy is the sum of the following terms:

     one-electron contribution =       5.25904190 Ry
     hartree contribution      =       1.09492173 Ry
     xc contribution           =     -12.16245708 Ry
     ewald contribution        =     -16.85464760 Ry

     convergence has been achieved in   5 iterations

     Writing output data file ./out/Si.save/
 
     init_run     :      0.43s CPU      0.53s WALL (       1 calls)
     electrons    :      1.22s CPU      1.47s WALL (       1 calls)

     Called by init_run:
     wfcinit      :      0.07s CPU      0.08s WALL (       1 calls)
     potinit      :      0.04s CPU      0.07s WALL (       1 calls)
     hinit0       :      0.27s CPU      0.32s WALL (       1 calls)

     Called by electrons:
     c_bands      :      0.67s CPU      0.68s WALL (       6 calls)
     sum_band     :      0.33s CPU      0.47s WALL (       6 calls)
     v_of_rho     :      0.11s CPU      0.13s WALL (       6 calls)
     newd         :      0.16s CPU      0.26s WALL (       6 calls)
     mix_rho      :      0.01s CPU      0.01s WALL (       6 calls)

     Called by c_bands:
     init_us_2    :      0.07s CPU      0.08s WALL (     104 calls)
     cegterg      :      0.42s CPU      0.43s WALL (      48 calls)

     Called by sum_band:
     sum_band:bec :      0.00s CPU      0.00s WALL (      48 calls)
     addusdens    :      0.20s CPU      0.34s WALL (       6 calls)

     Called by *egterg:
     h_psi        :      0.41s CPU      0.41s WALL (     146 calls)
     s_psi        :      0.03s CPU      0.03s WALL (     146 calls)
     g_psi        :      0.00s CPU      0.00s WALL (      90 calls)
     cdiaghg      :      0.01s CPU      0.01s WALL (     130 calls)

     Called by h_psi:
     h_psi:calbec :      0.03s CPU      0.03s WALL (     146 calls)
     vloc_psi     :      0.35s CPU      0.35s WALL (     146 calls)
     add_vuspsi   :      0.03s CPU      0.03s WALL (     146 calls)

     General routines
     calbec       :      0.04s CPU      0.04s WALL (     194 calls)
     fft          :      0.02s CPU      0.08s WALL (      67 calls)
     ffts         :      0.00s CPU      0.00s WALL (       6 calls)
     fftw         :      0.33s CPU      0.34s WALL (    1324 calls)
 
     Parallel routines
 
     PWSCF        :      2.07s CPU      2.52s WALL

 
   This run was terminated on:  18:32:36  24Dec2022            

=------------------------------------------------------------------------------=
   JOB DONE.
=------------------------------------------------------------------------------=
