
     Program BANDS v.7.1 starts on 11Dec2022 at 13:14:47 
        Git branch: develop
        Last git commit: 9ddde6fa44e0fb1c7debb78532a4b581a6ef82fd
        Last git commit date: Fri Oct 28 07:34:35 2022 +0000
        Last git commit subject: Merge branch 'fix_hubbardocc' into 'develop'

     This program is part of the open-source Quantum ESPRESSO suite
     for quantum simulation of materials; please cite
         "P. Giannozzi et al., J. Phys.:Condens. Matter 21 395502 (2009);
         "P. Giannozzi et al., J. Phys.:Condens. Matter 29 465901 (2017);
         "P. Giannozzi et al., J. Chem. Phys. 152 154105 (2020);
          URL http://www.quantum-espresso.org", 
     in publications or presentations arising from this work. More details at
     http://www.quantum-espresso.org/quote

     Parallel version (MPI), running on     1 processors

     MPI processes distributed on     1 nodes
     0 MiB available memory on the printing compute node when the environment starts


     Reading xml data from directory:

     ./out/Si.save/

     IMPORTANT: XC functional enforced from input :
     Exchange-correlation= PBESOL
                           (   1   4  10   8   0   0   0)
     Any further DFT definition will be discarded
     Please, verify this is what you really want


     G-vector sticks info
     --------------------
     sticks:   dense  smooth     PW     G-vecs:    dense   smooth      PW
     Sum         877     877    253                17261    17261    2741

     Using Slab Decomposition

     Reading collected, re-writing distributed wavefunctions
     high-symmetry point:  0.0000 0.0000 0.0000   x coordinate   0.0000
     high-symmetry point:  0.0000-0.7071 0.0000   x coordinate   0.7071
     high-symmetry point: -0.1768-0.7071-0.1768   x coordinate   0.9571
     high-symmetry point:  0.0000-0.5303-0.5303   x coordinate   1.3901
     high-symmetry point:  0.0000 0.0000 0.0000   x coordinate   2.1401
     high-symmetry point: -0.3536-0.3536-0.3536   x coordinate   2.7525
     high-symmetry point:  0.0000-0.7071-0.3536   x coordinate   3.2525
     high-symmetry point:  0.0000-0.7071 0.0000   x coordinate   3.6060

     Plottable bands (eV) written to file Si.band.gnu
     Bands written to file Si.band

 **************************************************************************

                    xk=(   0.00000,   0.00000,   0.00000  )

     point group O_h (m-3m) 
     there are 10 classes
     the character table:

       E     8C3   3C2   6C4   6C2'  i     8S6   3s_h  6S4   6s_d 
A_1g   1.00  1.00  1.00  1.00  1.00  1.00  1.00  1.00  1.00  1.00
A_2g   1.00  1.00  1.00 -1.00 -1.00  1.00  1.00  1.00 -1.00 -1.00
E_g    2.00 -1.00  2.00  0.00  0.00  2.00 -1.00  2.00  0.00  0.00
T_1g   3.00  0.00 -1.00  1.00 -1.00  3.00  0.00 -1.00  1.00 -1.00
T_2g   3.00  0.00 -1.00 -1.00  1.00  3.00  0.00 -1.00 -1.00  1.00
A_1u   1.00  1.00  1.00  1.00  1.00 -1.00 -1.00 -1.00 -1.00 -1.00
A_2u   1.00  1.00  1.00 -1.00 -1.00 -1.00 -1.00 -1.00  1.00  1.00
E_u    2.00 -1.00  2.00  0.00  0.00 -2.00  1.00 -2.00  0.00  0.00
T_1u   3.00  0.00 -1.00  1.00 -1.00 -3.00  0.00  1.00 -1.00  1.00
T_2u   3.00  0.00 -1.00 -1.00  1.00 -3.00  0.00  1.00  1.00 -1.00

     the symmetry operations in each class and the name of the first element:

     E        1
                                                                 
     8C3     17   19   20   18   24   21   22   23
                                                                 
     3C2      2    4    3
                                                                 
     6C4      7    8   15   16   12   11
                                                                 
     6C2'     5    6   14   13   10    9
                                                                 
     i       25
                                                                 
     8S6     41   43   44   42   48   45   46   47
                                                                 
     3s_h    26   28   27
                                                                 
     6S4     31   32   39   40   36   35
                                                                 
     6s_d    29   30   38   37   34   33
                                                                 

     Band symmetry, O_h (m-3m)  point group:

     e(  1 -  1) =     -5.87252  eV     1   --> A_1g G_1   G_1+
     e(  2 -  4) =      5.98363  eV     3   --> T_2g G_25' G_5+
     e(  5 -  7) =      8.47647  eV     3   --> T_1u G_15  G_4-
     e(  8 -  8) =      9.05853  eV     1   --> A_2u G_2'  G_2-
     e(  9 -  9) =     13.60079  eV     1   --> A_1g G_1   G_1+
     e( 10 - 11) =     13.65007  eV     2   --> E_u  G_12' G_3-
     e( 12 - 12) =     16.99250  eV     1   -->   ?

 **************************************************************************

 **************************************************************************

                    xk=(   0.00000,  -0.02020,   0.00000  )

     point group C_4v (4mm) 
     there are  5 classes
     the character table:

       E     2C4   C2    2s_v  2s_d 
A_1    1.00  1.00  1.00  1.00  1.00
A_2    1.00  1.00  1.00 -1.00 -1.00
B_1    1.00 -1.00  1.00  1.00 -1.00
B_2    1.00 -1.00  1.00 -1.00  1.00
E      2.00  0.00 -2.00  0.00  0.00

     the symmetry operations in each class and the name of the first element:

     E        1
                                                                 
     2C4      3    4
                                                                 
     C2       2
                                                                 
     2s_v     5    6
                                                                 
     2s_d     7    8
                                                                 

     Band symmetry, C_4v (4mm)  point group:

     e(  1 -  1) =     -5.86899  eV     1   --> A_1  G_1 D_1   
     e(  2 -  2) =      5.95768  eV     1   --> B_2  G_4 D_2'  
     e(  3 -  4) =      5.96799  eV     2   --> E    G_5 D_5   
     e(  5 -  5) =      8.46723  eV     1   --> A_1  G_1 D_1   
     e(  6 -  7) =      8.49642  eV     2   --> E    G_5 D_5   
     e(  8 -  8) =      9.08399  eV     1   --> B_2  G_4 D_2'  
     e(  9 -  9) =     13.61699  eV     1   --> A_1  G_1 D_1   
     e( 10 - 10) =     13.61925  eV     1   --> B_2  G_4 D_2'  
     e( 11 - 11) =     13.65397  eV     1   --> A_2  G_2 D_1'  
     e( 12 - 12) =     16.99870  eV     1   -->   ?

 **************************************************************************

 **************************************************************************

                    xk=(   0.00000,  -0.04041,   0.00000  )

     Band symmetry, C_4v (4mm)  point group:

     e(  1 -  1) =     -5.85842  eV     1   --> A_1  G_1 D_1   
     e(  2 -  2) =      5.88241  eV     1   --> B_2  G_4 D_2'  
     e(  3 -  4) =      5.92259  eV     2   --> E    G_5 D_5   
     e(  5 -  5) =      8.43992  eV     1   --> A_1  G_1 D_1   
     e(  6 -  7) =      8.55476  eV     2   --> E    G_5 D_5   
     e(  8 -  8) =      9.15751  eV     1   --> B_2  G_4 D_2'  
     e(  9 -  9) =     13.53049  eV     1   --> B_2  G_4 D_2'  
     e( 10 - 10) =     13.66518  eV     1   --> A_1  G_1 D_1   
     e( 11 - 11) =     13.66568  eV     1   --> A_2  G_2 D_1'  
     e( 12 - 12) =     17.01729  eV     1   -->   ?

 **************************************************************************

 **************************************************************************

                    xk=(   0.00000,  -0.06061,   0.00000  )

     Band symmetry, C_4v (4mm)  point group:

     e(  1 -  1) =     -5.84080  eV     1   --> A_1  G_1 D_1   
     e(  2 -  2) =      5.76444  eV     1   --> B_2  G_4 D_2'  
     e(  3 -  4) =      5.85134  eV     2   --> E    G_5 D_5   
     e(  5 -  5) =      8.39565  eV     1   --> A_1  G_1 D_1   
     e(  6 -  7) =      8.64754  eV     2   --> E    G_5 D_5   
     e(  8 -  8) =      9.27148  eV     1   --> B_2  G_4 D_2'  
     e(  9 -  9) =     13.39363  eV     1   --> B_2  G_4 D_2'  
     e( 10 - 10) =     13.68520  eV     1   --> A_2  G_2 D_1'  
     e( 11 - 11) =     13.74421  eV     1   --> A_1  G_1 D_1   
     e( 12 - 12) =     17.04826  eV     1   -->   ?

 **************************************************************************

 **************************************************************************

                    xk=(   0.00000,  -0.08081,   0.00000  )

     Band symmetry, C_4v (4mm)  point group:

     e(  1 -  1) =     -5.81614  eV     1   --> A_1  G_1 D_1   
     e(  2 -  2) =      5.61208  eV     1   --> B_2  G_4 D_2'  
     e(  3 -  4) =      5.75941  eV     2   --> E    G_5 D_5   
     e(  5 -  5) =      8.33611  eV     1   --> A_1  G_1 D_1   
     e(  6 -  7) =      8.76958  eV     2   --> E    G_5 D_5   
     e(  8 -  8) =      9.41577  eV     1   --> B_2  G_4 D_2'  
     e(  9 -  9) =     13.22170  eV     1   --> B_2  G_4 D_2'  
     e( 10 - 10) =     13.71251  eV     1   --> A_2  G_2 D_1'  
     e( 11 - 11) =     13.85234  eV     1   --> A_1  G_1 D_1   
     e( 12 - 12) =     17.09158  eV     1   -->   ?

 **************************************************************************

 **************************************************************************

                    xk=(   0.00000,  -0.10102,   0.00000  )

     Band symmetry, C_4v (4mm)  point group:

     e(  1 -  1) =     -5.78446  eV     1   --> A_1  G_1 D_1   
     e(  2 -  2) =      5.43330  eV     1   --> B_2  G_4 D_2'  
     e(  3 -  4) =      5.65197  eV     2   --> E    G_5 D_5   
     e(  5 -  5) =      8.26339  eV     1   --> A_1  G_1 D_1   
     e(  6 -  7) =      8.91563  eV     2   --> E    G_5 D_5   
     e(  8 -  8) =      9.57933  eV     1   --> B_2  G_4 D_2'  
     e(  9 -  9) =     13.02870  eV     1   --> B_2  G_4 D_2'  
     e( 10 - 10) =     13.74763  eV     1   --> A_2  G_2 D_1'  
     e( 11 - 11) =     13.98740  eV     1   --> A_1  G_1 D_1   
     e( 12 - 12) =     17.14720  eV     1   -->   ?

 **************************************************************************

 **************************************************************************

                    xk=(   0.00000,  -0.12122,   0.00000  )

     Band symmetry, C_4v (4mm)  point group:

     e(  1 -  1) =     -5.74577  eV     1   --> A_1  G_1 D_1   
     e(  2 -  2) =      5.23474  eV     1   --> B_2  G_4 D_2'  
     e(  3 -  4) =      5.53361  eV     2   --> E    G_5 D_5   
     e(  5 -  5) =      8.17973  eV     1   --> A_1  G_1 D_1   
     e(  6 -  7) =      9.08106  eV     2   --> E    G_5 D_5   
     e(  8 -  8) =      9.75053  eV     1   --> B_2  G_4 D_2'  
     e(  9 -  9) =     12.82895  eV     1   --> B_2  G_4 D_2'  
     e( 10 - 10) =     13.79055  eV     1   --> A_2  G_2 D_1'  
     e( 11 - 11) =     14.14704  eV     1   --> A_1  G_1 D_1   
     e( 12 - 12) =     17.21508  eV     1   -->   ?

 **************************************************************************

 **************************************************************************

                    xk=(   0.00000,  -0.14142,   0.00000  )

     Band symmetry, C_4v (4mm)  point group:

     e(  1 -  1) =     -5.70009  eV     1   --> A_1  G_1 D_1   
     e(  2 -  2) =      5.02154  eV     1   --> B_2  G_4 D_2'  
     e(  3 -  4) =      5.40804  eV     2   --> E    G_5 D_5   
     e(  5 -  5) =      8.08742  eV     1   --> A_1  G_1 D_1   
     e(  6 -  7) =      9.26208  eV     2   --> E    G_5 D_5   
     e(  8 -  8) =      9.91624  eV     1   --> B_2  G_4 D_2'  
     e(  9 -  9) =     12.63785  eV     1   --> B_2  G_4 D_2'  
     e( 10 - 10) =     13.84126  eV     1   --> A_2  G_2 D_1'  
     e( 11 - 11) =     14.32886  eV     1   --> A_1  G_1 D_1   
     e( 12 - 12) =     17.29511  eV     1   -->   ?

 **************************************************************************

 **************************************************************************

                    xk=(   0.00000,  -0.16162,   0.00000  )

     Band symmetry, C_4v (4mm)  point group:

     e(  1 -  1) =     -5.64743  eV     1   --> A_1  G_1 D_1   
     e(  2 -  2) =      4.79753  eV     1   --> B_2  G_4 D_2'  
     e(  3 -  4) =      5.27816  eV     2   --> E    G_5 D_5   
     e(  5 -  5) =      7.98859  eV     1   --> A_1  G_1 D_1   
     e(  6 -  7) =      9.45570  eV     2   --> E    G_5 D_5   
     e(  8 -  8) =     10.06027  eV     1   --> B_2  G_4 D_2'  
     e(  9 -  9) =     12.47348  eV     1   --> B_2  G_4 D_2'  
     e( 10 - 10) =     13.89976  eV     1   --> A_2  G_2 D_1'  
     e( 11 - 11) =     14.53052  eV     1   --> A_1  G_1 D_1   
     e( 12 - 12) =     17.38716  eV     1   -->   ?

 **************************************************************************

 **************************************************************************

                    xk=(   0.00000,  -0.18183,   0.00000  )

     Band symmetry, C_4v (4mm)  point group:

     e(  1 -  1) =     -5.58782  eV     1   --> A_1  G_1 D_1   
     e(  2 -  2) =      4.56550  eV     1   --> B_2  G_4 D_2'  
     e(  3 -  4) =      5.14621  eV     2   --> E    G_5 D_5   
     e(  5 -  5) =      7.88524  eV     1   --> A_1  G_1 D_1   
     e(  6 -  7) =      9.65961  eV     2   --> E    G_5 D_5   
     e(  8 -  8) =     10.16254  eV     1   --> B_2  G_4 D_2'  
     e(  9 -  9) =     12.35743  eV     1   --> B_2  G_4 D_2'  
     e( 10 - 10) =     13.96605  eV     1   --> A_2  G_2 D_1'  
     e( 11 - 11) =     14.74985  eV     1   --> A_1  G_1 D_1   
     e( 12 - 12) =     17.49104  eV     1   -->   ?

 **************************************************************************

 **************************************************************************

                    xk=(   0.00000,  -0.20203,   0.00000  )

     Band symmetry, C_4v (4mm)  point group:

     e(  1 -  1) =     -5.52129  eV     1   --> A_1  G_1 D_1   
     e(  2 -  2) =      4.32750  eV     1   --> B_2  G_4 D_2'  
     e(  3 -  4) =      5.01391  eV     2   --> E    G_5 D_5   
     e(  5 -  5) =      7.77913  eV     1   --> A_1  G_1 D_1   
     e(  6 -  7) =      9.87199  eV     2   --> E    G_5 D_5   
     e(  8 -  8) =     10.20247  eV     1   --> B_2  G_4 D_2'  
     e(  9 -  9) =     12.31152  eV     1   --> B_2  G_4 D_2'  
     e( 10 - 10) =     14.04012  eV     1   --> A_2  G_2 D_1'  
     e( 11 - 11) =     14.98480  eV     1   --> A_1  G_1 D_1   
     e( 12 - 12) =     17.60648  eV     1   -->   ?

 **************************************************************************

 **************************************************************************

                    xk=(   0.00000,  -0.22223,   0.00000  )

     Band symmetry, C_4v (4mm)  point group:

     e(  1 -  1) =     -5.44787  eV     1   --> A_1  G_1 D_1   
     e(  2 -  2) =      4.08502  eV     1   --> B_2  G_4 D_2'  
     e(  3 -  4) =      4.88256  eV     2   --> E    G_5 D_5   
     e(  5 -  5) =      7.67180  eV     1   --> A_1  G_1 D_1   
     e(  6 -  7) =     10.09145  eV     2   --> E    G_5 D_5   
     e(  8 -  8) =     10.16875  eV     1   --> B_2  G_4 D_2'  
     e(  9 -  9) =     12.34802  eV     1   --> B_2  G_4 D_2'  
     e( 10 - 10) =     14.12197  eV     1   --> A_2  G_2 D_1'  
     e( 11 - 11) =     15.23351  eV     1   --> A_1  G_1 D_1   
     e( 12 - 12) =     17.73308  eV     1   -->   ?

 **************************************************************************

 **************************************************************************

                    xk=(   0.00000,  -0.24244,   0.00000  )

     Band symmetry, C_4v (4mm)  point group:

     e(  1 -  1) =     -5.36760  eV     1   --> A_1  G_1 D_1   
     e(  2 -  2) =      3.83918  eV     1   --> B_2  G_4 D_2'  
     e(  3 -  4) =      4.75319  eV     2   --> E    G_5 D_5   
     e(  5 -  5) =      7.56460  eV     1   --> A_1  G_1 D_1   
     e(  6 -  6) =     10.06700  eV     1   --> B_2  G_4 D_2'  
     e(  7 -  8) =     10.31687  eV     2   --> E    G_5 D_5   
     e(  9 -  9) =     12.46205  eV     1   --> B_2  G_4 D_2'  
     e( 10 - 10) =     14.21159  eV     1   --> A_2  G_2 D_1'  
     e( 11 - 11) =     15.49423  eV     1   --> A_1  G_1 D_1   
     e( 12 - 12) =     17.87033  eV     1   -->   ?

 **************************************************************************

 **************************************************************************

                    xk=(   0.00000,  -0.26264,   0.00000  )

     Band symmetry, C_4v (4mm)  point group:

     e(  1 -  1) =     -5.28051  eV     1   --> A_1  G_1 D_1   
     e(  2 -  2) =      3.59080  eV     1   --> B_2  G_4 D_2'  
     e(  3 -  4) =      4.62659  eV     2   --> E    G_5 D_5   
     e(  5 -  5) =      7.45869  eV     1   --> A_1  G_1 D_1   
     e(  6 -  6) =      9.91464  eV     1   --> B_2  G_4 D_2'  
     e(  7 -  8) =     10.54737  eV     2   --> E    G_5 D_5   
     e(  9 -  9) =     12.63673  eV     1   --> B_2  G_4 D_2'  
     e( 10 - 10) =     14.30896  eV     1   --> A_2  G_2 D_1'  
     e( 11 - 11) =     15.76532  eV     1   --> A_1  G_1 D_1   
     e( 12 - 12) =     18.01747  eV     1   -->   ?

 **************************************************************************

 **************************************************************************

                    xk=(   0.00000,  -0.28284,   0.00000  )

     Band symmetry, C_4v (4mm)  point group:

     e(  1 -  1) =     -5.18666  eV     1   --> A_1  G_1 D_1   
     e(  2 -  2) =      3.34054  eV     1   --> B_2  G_4 D_2'  
     e(  3 -  4) =      4.50340  eV     2   --> E    G_5 D_5   
     e(  5 -  5) =      7.35506  eV     1   --> A_1  G_1 D_1   
     e(  6 -  6) =      9.73008  eV     1   --> B_2  G_4 D_2'  
     e(  7 -  8) =     10.78225  eV     2   --> E    G_5 D_5   
     e(  9 -  9) =     12.85405  eV     1   --> B_2  G_4 D_2'  
     e( 10 - 10) =     14.41410  eV     1   --> A_2  G_2 D_1'  
     e( 11 - 11) =     16.04516  eV     1   --> A_1  G_1 D_1   
     e( 12 - 12) =     18.17343  eV     1   -->   ?

 **************************************************************************

 **************************************************************************

                    xk=(   0.00000,  -0.30305,   0.00000  )

     Band symmetry, C_4v (4mm)  point group:

     e(  1 -  1) =     -5.08607  eV     1   --> A_1  G_1 D_1   
     e(  2 -  2) =      3.08887  eV     1   --> B_2  G_4 D_2'  
     e(  3 -  4) =      4.38412  eV     2   --> E    G_5 D_5   
     e(  5 -  5) =      7.25456  eV     1   --> A_1  G_1 D_1   
     e(  6 -  6) =      9.52738  eV     1   --> B_2  G_4 D_2'  
     e(  7 -  8) =     11.02091  eV     2   --> E    G_5 D_5   
     e(  9 -  9) =     13.10016  eV     1   --> B_2  G_4 D_2'  
     e( 10 - 10) =     14.52697  eV     1   --> A_2  G_2 D_1'  
     e( 11 - 11) =     16.33215  eV     1   --> A_1  G_1 D_1   
     e( 12 - 12) =     18.33671  eV     1   -->   ?

 **************************************************************************

 **************************************************************************

                    xk=(   0.00000,  -0.32325,   0.00000  )

     Band symmetry, C_4v (4mm)  point group:

     e(  1 -  1) =     -4.97882  eV     1   --> A_1  G_1 D_1   
     e(  2 -  2) =      2.83623  eV     1   --> B_2  G_4 D_2'  
     e(  3 -  4) =      4.26916  eV     2   --> E    G_5 D_5   
     e(  5 -  5) =      7.15794  eV     1   --> A_1  G_1 D_1   
     e(  6 -  6) =      9.31604  eV     1   --> B_2  G_4 D_2'  
     e(  7 -  8) =     11.26289  eV     2   --> E    G_5 D_5   
     e(  9 -  9) =     13.36569  eV     1   --> B_2  G_4 D_2'  
     e( 10 - 10) =     14.64759  eV     1   --> A_2  G_2 D_1'  
     e( 11 - 11) =     16.62458  eV     1   --> A_1  G_1 D_1   
     e( 12 - 12) =     18.50511  eV     1   -->   ?

 **************************************************************************

 **************************************************************************

                    xk=(   0.00000,  -0.34345,   0.00000  )

     Band symmetry, C_4v (4mm)  point group:

     e(  1 -  1) =     -4.86495  eV     1   --> A_1  G_1 D_1   
     e(  2 -  2) =      2.58293  eV     1   --> B_2  G_4 D_2'  
     e(  3 -  4) =      4.15887  eV     2   --> E    G_5 D_5   
     e(  5 -  5) =      7.06582  eV     1   --> A_1  G_1 D_1   
     e(  6 -  6) =      9.10226  eV     1   --> B_2  G_4 D_2'  
     e(  7 -  8) =     11.50781  eV     2   --> E    G_5 D_5   
     e(  9 -  9) =     13.64441  eV     1   --> B_2  G_4 D_2'  
     e( 10 - 10) =     14.77592  eV     1   --> A_2  G_2 D_1'  
     e( 11 - 11) =     16.92062  eV     1   --> A_1  G_1 D_1   
     e( 12 - 12) =     18.67544  eV     1   -->   ?

 **************************************************************************

 **************************************************************************

                    xk=(   0.00000,  -0.36365,   0.00000  )

     Band symmetry, C_4v (4mm)  point group:

     e(  1 -  1) =     -4.74452  eV     1   --> A_1  G_1 D_1   
     e(  2 -  2) =      2.32928  eV     1   --> B_2  G_4 D_2'  
     e(  3 -  4) =      4.05351  eV     2   --> E    G_5 D_5   
     e(  5 -  5) =      6.97876  eV     1   --> A_1  G_1 D_1   
     e(  6 -  6) =      8.89011  eV     1   --> B_2  G_4 D_2'  
     e(  7 -  8) =     11.75535  eV     2   --> E    G_5 D_5   
     e(  9 -  9) =     13.93214  eV     1   --> B_2  G_4 D_2'  
     e( 10 - 10) =     14.91197  eV     1   --> A_2  G_2 D_1'  
     e( 11 - 11) =     17.21819  eV     1   --> A_1  G_1 D_1   
     e( 12 - 12) =     18.84294  eV     1   -->   ?

 **************************************************************************

 **************************************************************************

                    xk=(   0.00000,  -0.38386,   0.00000  )

     Band symmetry, C_4v (4mm)  point group:

     e(  1 -  1) =     -4.61762  eV     1   --> A_1  G_1 D_1   
     e(  2 -  2) =      2.07556  eV     1   --> B_2  G_4 D_2'  
     e(  3 -  4) =      3.95333  eV     2   --> E    G_5 D_5   
     e(  5 -  5) =      6.89724  eV     1   --> A_1  G_1 D_1   
     e(  6 -  6) =      8.68233  eV     1   --> B_2  G_4 D_2'  
     e(  7 -  8) =     12.00525  eV     2   --> E    G_5 D_5   
     e(  9 -  9) =     14.22592  eV     1   --> B_2  G_4 D_2'  
     e( 10 - 10) =     15.05572  eV     1   --> A_2  G_2 D_1'  
     e( 11 - 11) =     17.51485  eV     1   --> A_1  G_1 D_1   
     e( 12 - 12) =     19.00057  eV     1   -->   ?

 **************************************************************************

 **************************************************************************

                    xk=(   0.00000,  -0.40406,   0.00000  )

     Band symmetry, C_4v (4mm)  point group:

     e(  1 -  1) =     -4.48430  eV     1   --> A_1  G_1 D_1   
     e(  2 -  2) =      1.82202  eV     1   --> B_2  G_4 D_2'  
     e(  3 -  4) =      3.85852  eV     2   --> E    G_5 D_5   
     e(  5 -  5) =      6.82168  eV     1   --> A_1  G_1 D_1   
     e(  6 -  6) =      8.48082  eV     1   --> B_2  G_4 D_2'  
     e(  7 -  8) =     12.25732  eV     2   --> E    G_5 D_5   
     e(  9 -  9) =     14.52355  eV     1   --> B_2  G_4 D_2'  
     e( 10 - 10) =     15.20716  eV     1   --> A_2  G_2 D_1'  
     e( 11 - 11) =     17.80769  eV     1   --> A_1  G_1 D_1   
     e( 12 - 12) =     19.13800  eV     1   -->   ?

 **************************************************************************

 **************************************************************************

                    xk=(   0.00000,  -0.42426,   0.00000  )

     Band symmetry, C_4v (4mm)  point group:

     e(  1 -  1) =     -4.34464  eV     1   --> A_1  G_1 D_1   
     e(  2 -  2) =      1.56891  eV     1   --> B_2  G_4 D_2'  
     e(  3 -  4) =      3.76924  eV     2   --> E    G_5 D_5   
     e(  5 -  5) =      6.75246  eV     1   --> A_1  G_1 D_1   
     e(  6 -  6) =      8.28689  eV     1   --> B_2  G_4 D_2'  
     e(  7 -  8) =     12.51137  eV     2   --> E    G_5 D_5   
     e(  9 -  9) =     14.82336  eV     1   --> B_2  G_4 D_2'  
     e( 10 - 10) =     15.36627  eV     1   --> A_2  G_2 D_1'  
     e( 11 - 11) =     18.09316  eV     1   --> A_1  G_1 D_1   
     e( 12 - 12) =     19.24111  eV     1   -->   ?

 **************************************************************************

 **************************************************************************

                    xk=(   0.00000,  -0.44447,   0.00000  )

     Band symmetry, C_4v (4mm)  point group:

     e(  1 -  1) =     -4.19874  eV     1   --> A_1  G_1 D_1   
     e(  2 -  2) =      1.31648  eV     1   --> B_2  G_4 D_2'  
     e(  3 -  4) =      3.68565  eV     2   --> E    G_5 D_5   
     e(  5 -  5) =      6.68993  eV     1   --> A_1  G_1 D_1   
     e(  6 -  6) =      8.10148  eV     1   --> B_2  G_4 D_2'  
     e(  7 -  8) =     12.76727  eV     2   --> E    G_5 D_5   
     e(  9 -  9) =     15.12398  eV     1   --> B_2  G_4 D_2'  
     e( 10 - 10) =     15.53303  eV     1   --> A_2  G_2 D_1'  
     e( 11 - 11) =     18.36690  eV     1   --> A_1  G_1 D_1   
     e( 12 - 12) =     19.29321  eV     1   -->   ?

 **************************************************************************

 **************************************************************************

                    xk=(   0.00000,  -0.46467,   0.00000  )

     Band symmetry, C_4v (4mm)  point group:

     e(  1 -  1) =     -4.04668  eV     1   --> A_1  G_1 D_1   
     e(  2 -  2) =      1.06498  eV     1   --> B_2  G_4 D_2'  
     e(  3 -  4) =      3.60785  eV     2   --> E    G_5 D_5   
     e(  5 -  5) =      6.63438  eV     1   --> A_1  G_1 D_1   
     e(  6 -  6) =      7.92523  eV     1   --> B_2  G_4 D_2'  
     e(  7 -  8) =     13.02488  eV     2   --> E    G_5 D_5   
     e(  9 -  9) =     15.42427  eV     1   --> B_2  G_4 D_2'  
     e( 10 - 10) =     15.70744  eV     1   --> A_2  G_2 D_1'  
     e( 11 - 11) =     18.62360  eV     1   --> A_1  G_1 D_1   
     e( 12 - 12) =     19.28013  eV     1   -->   ?

 **************************************************************************

 **************************************************************************

                    xk=(   0.00000,  -0.48487,   0.00000  )

     Band symmetry, C_4v (4mm)  point group:

     e(  1 -  1) =     -3.88856  eV     1   --> A_1  G_1 D_1   
     e(  2 -  2) =      0.81467  eV     1   --> B_2  G_4 D_2'  
     e(  3 -  4) =      3.53597  eV     2   --> E    G_5 D_5   
     e(  5 -  5) =      6.58609  eV     1   --> A_1  G_1 D_1   
     e(  6 -  6) =      7.75863  eV     1   --> B_2  G_4 D_2'  
     e(  7 -  8) =     13.28409  eV     2   --> E    G_5 D_5   
     e(  9 -  9) =     15.72322  eV     1   --> B_2  G_4 D_2'  
     e( 10 - 10) =     15.88946  eV     1   --> A_2  G_2 D_1'  
     e( 11 - 11) =     18.85692  eV     1   --> A_1  G_1 D_1   
     e( 12 - 12) =     19.19737  eV     1   -->   ?

 **************************************************************************

 **************************************************************************

                    xk=(   0.00000,  -0.50508,   0.00000  )

     Band symmetry, C_4v (4mm)  point group:

     e(  1 -  1) =     -3.72449  eV     1   --> A_1  G_1 D_1   
     e(  2 -  2) =      0.56581  eV     1   --> B_2  G_4 D_2'  
     e(  3 -  4) =      3.47007  eV     2   --> E    G_5 D_5   
     e(  5 -  5) =      6.54532  eV     1   --> A_1  G_1 D_1   
     e(  6 -  6) =      7.60197  eV     1   --> B_2  G_4 D_2'  
     e(  7 -  8) =     13.54475  eV     2   --> E    G_5 D_5   
     e(  9 -  9) =     16.01994  eV     1   --> B_2  G_4 D_2'  
     e( 10 - 10) =     16.07909  eV     1   --> A_2  G_2 D_1'  
     e( 11 - 12) =     19.05246  eV     2   -->   ?

 **************************************************************************

 **************************************************************************

                    xk=(   0.00000,  -0.52528,   0.00000  )

     Band symmetry, C_4v (4mm)  point group:

     e(  1 -  1) =     -3.55457  eV     1   --> A_1  G_1 D_1   
     e(  2 -  2) =      0.31866  eV     1   --> B_2  G_4 D_2'  
     e(  3 -  4) =      3.41025  eV     2   --> E    G_5 D_5   
     e(  5 -  5) =      6.51230  eV     1   --> A_1  G_1 D_1   
     e(  6 -  6) =      7.45547  eV     1   --> B_2  G_4 D_2'  
     e(  7 -  8) =     13.80667  eV     2   --> E    G_5 D_5   
     e(  9 -  9) =     16.27629  eV     1   --> A_2  G_2 D_1'  
     e( 10 - 10) =     16.31362  eV     1   --> B_2  G_4 D_2'  
     e( 11 - 12) =     18.85989  eV     2   --> E    G_5 D_5   

 **************************************************************************

 **************************************************************************

                    xk=(   0.00000,  -0.54548,   0.00000  )

     Band symmetry, C_4v (4mm)  point group:

     e(  1 -  1) =     -3.37894  eV     1   --> A_1  G_1 D_1   
     e(  2 -  2) =      0.07348  eV     1   --> B_2  G_4 D_2'  
     e(  3 -  4) =      3.35657  eV     2   --> E    G_5 D_5   
     e(  5 -  5) =      6.48726  eV     1   --> A_1  G_1 D_1   
     e(  6 -  6) =      7.31926  eV     1   --> B_2  G_4 D_2'  
     e(  7 -  8) =     14.06957  eV     2   --> E    G_5 D_5   
     e(  9 -  9) =     16.48105  eV     1   --> A_2  G_2 D_1'  
     e( 10 - 10) =     16.60347  eV     1   --> B_2  G_4 D_2'  
     e( 11 - 12) =     18.63441  eV     2   --> E    G_5 D_5   

 **************************************************************************

 **************************************************************************

                    xk=(   0.00000,  -0.56569,   0.00000  )

     Band symmetry, C_4v (4mm)  point group:

     e(  1 -  1) =     -3.19773  eV     1   --> A_1  G_1 D_1   
     e(  2 -  2) =     -0.16946  eV     1   --> B_2  G_4 D_2'  
     e(  3 -  4) =      3.30908  eV     2   --> E    G_5 D_5   
     e(  5 -  5) =      6.47041  eV     1   --> A_1  G_1 D_1   
     e(  6 -  6) =      7.19337  eV     1   --> B_2  G_4 D_2'  
     e(  7 -  8) =     14.33303  eV     2   --> E    G_5 D_5   
     e(  9 -  9) =     16.69333  eV     1   --> A_2  G_2 D_1'  
     e( 10 - 10) =     16.88869  eV     1   --> B_2  G_4 D_2'  
     e( 11 - 12) =     18.38792  eV     2   --> E    G_5 D_5   

 **************************************************************************

 **************************************************************************

                    xk=(   0.00000,  -0.58589,   0.00000  )

     Band symmetry, C_4v (4mm)  point group:

     e(  1 -  1) =     -3.01106  eV     1   --> A_1  G_1 D_1   
     e(  2 -  2) =     -0.40989  eV     1   --> B_2  G_4 D_2'  
     e(  3 -  4) =      3.26783  eV     2   --> E    G_5 D_5   
     e(  5 -  5) =      6.46194  eV     1   --> A_1  G_1 D_1   
     e(  6 -  6) =      7.07782  eV     1   --> B_2  G_4 D_2'  
     e(  7 -  8) =     14.59630  eV     2   --> E    G_5 D_5   
     e(  9 -  9) =     16.91312  eV     1   --> A_2  G_2 D_1'  
     e( 10 - 10) =     17.16847  eV     1   --> B_2  G_4 D_2'  
     e( 11 - 12) =     18.12925  eV     2   --> E    G_5 D_5   

 **************************************************************************

 **************************************************************************

                    xk=(   0.00000,  -0.60609,   0.00000  )

     Band symmetry, C_4v (4mm)  point group:

     e(  1 -  1) =     -2.81909  eV     1   --> A_1  G_1 D_1   
     e(  2 -  2) =     -0.64756  eV     1   --> B_2  G_4 D_2'  
     e(  3 -  4) =      3.23287  eV     2   --> E    G_5 D_5   
     e(  5 -  5) =      6.46205  eV     1   --> A_1  G_1 D_1   
     e(  6 -  6) =      6.97256  eV     1   --> B_2  G_4 D_2'  
     e(  7 -  8) =     14.85812  eV     2   --> E    G_5 D_5   
     e(  9 -  9) =     17.14038  eV     1   --> A_2  G_2 D_1'  
     e( 10 - 10) =     17.44191  eV     1   --> B_2  G_4 D_2'  
     e( 11 - 12) =     17.86516  eV     2   --> E    G_5 D_5   

 **************************************************************************

 **************************************************************************

                    xk=(   0.00000,  -0.62629,   0.00000  )

     Band symmetry, C_4v (4mm)  point group:

     e(  1 -  1) =     -2.62198  eV     1   --> A_1  G_1 D_1   
     e(  2 -  2) =     -0.88220  eV     1   --> B_2  G_4 D_2'  
     e(  3 -  4) =      3.20422  eV     2   --> E    G_5 D_5   
     e(  5 -  5) =      6.47092  eV     1   --> A_1  G_1 D_1   
     e(  6 -  6) =      6.87753  eV     1   --> B_2  G_4 D_2'  
     e(  7 -  8) =     15.11606  eV     2   --> E    G_5 D_5   
     e(  9 -  9) =     17.37508  eV     1   --> A_2  G_2 D_1'  
     e( 10 - 11) =     17.60173  eV     2   --> E    G_5 D_5   
     e( 12 - 12) =     17.70794  eV     1   --> B_2  G_4 D_2'  

 **************************************************************************

 **************************************************************************

                    xk=(   0.00000,  -0.64650,   0.00000  )

     Band symmetry, C_4v (4mm)  point group:

     e(  1 -  1) =     -2.41990  eV     1   --> A_1  G_1 D_1   
     e(  2 -  2) =     -1.11357  eV     1   --> B_2  G_4 D_2'  
     e(  3 -  4) =      3.18191  eV     2   --> E    G_5 D_5   
     e(  5 -  5) =      6.48873  eV     1   --> A_1  G_1 D_1   
     e(  6 -  6) =      6.79263  eV     1   --> B_2  G_4 D_2'  
     e(  7 -  8) =     15.36521  eV     2   --> E    G_5 D_5   
     e(  9 - 10) =     17.34632  eV     2   --> E    G_5 D_5   
     e( 11 - 11) =     17.61718  eV     1   --> A_2  G_2 D_1'  
     e( 12 - 12) =     17.96530  eV     1   --> B_2  G_4 D_2'  

 **************************************************************************

 **************************************************************************

                    xk=(   0.00000,  -0.66670,   0.00000  )

     Band symmetry, C_4v (4mm)  point group:

     e(  1 -  1) =     -2.21301  eV     1   --> A_1  G_1 D_1   
     e(  2 -  2) =     -1.34142  eV     1   --> B_2  G_4 D_2'  
     e(  3 -  4) =      3.16596  eV     2   --> E    G_5 D_5   
     e(  5 -  5) =      6.51565  eV     1   --> A_1  G_1 D_1   
     e(  6 -  6) =      6.71774  eV     1   --> B_2  G_4 D_2'  
     e(  7 -  8) =     15.59432  eV     2   --> E    G_5 D_5   
     e(  9 - 10) =     17.11175  eV     2   --> E    G_5 D_5   
     e( 11 - 11) =     17.86665  eV     1   --> A_2  G_2 D_1'  
     e( 12 - 12) =     18.21240  eV     1   --> B_2  G_4 D_2'  

 **************************************************************************

 **************************************************************************

                    xk=(   0.00000,  -0.68690,   0.00000  )

     Band symmetry, C_4v (4mm)  point group:

     e(  1 -  1) =     -2.00152  eV     1   --> A_1  G_1 D_1   
     e(  2 -  2) =     -1.56551  eV     1   --> B_2  G_4 D_2'  
     e(  3 -  4) =      3.15638  eV     2   --> E    G_5 D_5   
     e(  5 -  5) =      6.55185  eV     1   --> A_1  G_1 D_1   
     e(  6 -  6) =      6.65275  eV     1   --> B_2  G_4 D_2'  
     e(  7 -  8) =     15.77574  eV     2   --> E    G_5 D_5   
     e(  9 - 10) =     16.92670  eV     2   --> E    G_5 D_5   
     e( 11 - 11) =     18.12345  eV     1   --> A_2  G_2 D_1'  
     e( 12 - 12) =     18.44723  eV     1   --> B_2  G_4 D_2'  

 **************************************************************************

 **************************************************************************

                    xk=(   0.00000,  -0.70711,   0.00000  )

     zone border point and non-symmorphic group 
     symmetry decomposition not available

 **************************************************************************

 **************************************************************************

                    xk=(  -0.01179,  -0.70711,  -0.01179  )

     zone border point and non-symmorphic group 
     symmetry decomposition not available

 **************************************************************************

 **************************************************************************

                    xk=(  -0.02357,  -0.70711,  -0.02357  )

     zone border point and non-symmorphic group 
     symmetry decomposition not available

 **************************************************************************

 **************************************************************************

                    xk=(  -0.03536,  -0.70711,  -0.03536  )

     zone border point and non-symmorphic group 
     symmetry decomposition not available

 **************************************************************************

 **************************************************************************

                    xk=(  -0.04714,  -0.70711,  -0.04714  )

     zone border point and non-symmorphic group 
     symmetry decomposition not available

 **************************************************************************

 **************************************************************************

                    xk=(  -0.05893,  -0.70711,  -0.05893  )

     zone border point and non-symmorphic group 
     symmetry decomposition not available

 **************************************************************************

 **************************************************************************

                    xk=(  -0.07071,  -0.70711,  -0.07071  )

     zone border point and non-symmorphic group 
     symmetry decomposition not available

 **************************************************************************

 **************************************************************************

                    xk=(  -0.08250,  -0.70711,  -0.08250  )

     zone border point and non-symmorphic group 
     symmetry decomposition not available

 **************************************************************************

 **************************************************************************

                    xk=(  -0.09428,  -0.70711,  -0.09428  )

     zone border point and non-symmorphic group 
     symmetry decomposition not available

 **************************************************************************

 **************************************************************************

                    xk=(  -0.10607,  -0.70711,  -0.10607  )

     zone border point and non-symmorphic group 
     symmetry decomposition not available

 **************************************************************************

 **************************************************************************

                    xk=(  -0.11785,  -0.70711,  -0.11785  )

     zone border point and non-symmorphic group 
     symmetry decomposition not available

 **************************************************************************

 **************************************************************************

                    xk=(  -0.12964,  -0.70711,  -0.12964  )

     zone border point and non-symmorphic group 
     symmetry decomposition not available

 **************************************************************************

 **************************************************************************

                    xk=(  -0.14142,  -0.70711,  -0.14142  )

     zone border point and non-symmorphic group 
     symmetry decomposition not available

 **************************************************************************

 **************************************************************************

                    xk=(  -0.15321,  -0.70711,  -0.15321  )

     zone border point and non-symmorphic group 
     symmetry decomposition not available

 **************************************************************************

 **************************************************************************

                    xk=(  -0.16499,  -0.70711,  -0.16499  )

     zone border point and non-symmorphic group 
     symmetry decomposition not available

 **************************************************************************

 **************************************************************************

                    xk=(  -0.17678,  -0.70711,  -0.17678  )

     zone border point and non-symmorphic group 
     symmetry decomposition not available

 **************************************************************************

 **************************************************************************

                    xk=(  -0.16794,  -0.69827,  -0.19445  )

     point group C_1 (1)    
     there are  1 classes
     the character table:

       E    
A      1.00

     the symmetry operations in each class and the name of the first element:

     E        1
                                                                 

     Band symmetry, C_1 (1)     point group:

     e(  1 -  1) =     -2.22315  eV     1   --> A              
     e(  2 -  2) =     -1.17123  eV     1   --> A              
     e(  3 -  3) =      1.68653  eV     1   --> A              
     e(  4 -  4) =      3.57674  eV     1   --> A              
     e(  5 -  5) =      7.14302  eV     1   --> A              
     e(  6 -  6) =     10.12569  eV     1   --> A              
     e(  7 -  7) =     13.12355  eV     1   --> A              
     e(  8 -  8) =     13.72214  eV     1   --> A              
     e(  9 -  9) =     13.88640  eV     1   --> A              
     e( 10 - 10) =     14.50659  eV     1   --> A              
     e( 11 - 11) =     20.25155  eV     1   --> A              
     e( 12 - 12) =     20.79082  eV     1   --> A              

 **************************************************************************

 **************************************************************************

                    xk=(  -0.15910,  -0.68943,  -0.21213  )

     Band symmetry, C_1 (1)     point group:

     e(  1 -  1) =     -2.25484  eV     1   --> A              
     e(  2 -  2) =     -1.13509  eV     1   --> A              
     e(  3 -  3) =      1.68205  eV     1   --> A              
     e(  4 -  4) =      3.53964  eV     1   --> A              
     e(  5 -  5) =      7.25972  eV     1   --> A              
     e(  6 -  6) =     10.25938  eV     1   --> A              
     e(  7 -  7) =     12.80750  eV     1   --> A              
     e(  8 -  8) =     13.48505  eV     1   --> A              
     e(  9 -  9) =     13.91140  eV     1   --> A              
     e( 10 - 10) =     14.76001  eV     1   --> A              
     e( 11 - 11) =     20.04292  eV     1   --> A              
     e( 12 - 12) =     20.69882  eV     1   --> A              

 **************************************************************************

 **************************************************************************

                    xk=(  -0.15026,  -0.68059,  -0.22981  )

     Band symmetry, C_1 (1)     point group:

     e(  1 -  1) =     -2.28653  eV     1   --> A              
     e(  2 -  2) =     -1.09774  eV     1   --> A              
     e(  3 -  3) =      1.68911  eV     1   --> A              
     e(  4 -  4) =      3.47193  eV     1   --> A              
     e(  5 -  5) =      7.43104  eV     1   --> A              
     e(  6 -  6) =     10.39749  eV     1   --> A              
     e(  7 -  7) =     12.43589  eV     1   --> A              
     e(  8 -  8) =     13.23967  eV     1   --> A              
     e(  9 -  9) =     13.97002  eV     1   --> A              
     e( 10 - 10) =     15.05169  eV     1   --> A              
     e( 11 - 11) =     19.78531  eV     1   --> A              
     e( 12 - 12) =     20.51382  eV     1   --> A              

 **************************************************************************

 **************************************************************************

                    xk=(  -0.14142,  -0.67175,  -0.24749  )

     Band symmetry, C_1 (1)     point group:

     e(  1 -  1) =     -2.31651  eV     1   --> A              
     e(  2 -  2) =     -1.06153  eV     1   --> A              
     e(  3 -  3) =      1.70712  eV     1   --> A              
     e(  4 -  4) =      3.38275  eV     1   --> A              
     e(  5 -  5) =      7.64873  eV     1   --> A              
     e(  6 -  6) =     10.53670  eV     1   --> A              
     e(  7 -  7) =     12.04657  eV     1   --> A              
     e(  8 -  8) =     13.00479  eV     1   --> A              
     e(  9 -  9) =     14.03078  eV     1   --> A              
     e( 10 - 10) =     15.35954  eV     1   --> A              
     e( 11 - 11) =     19.49686  eV     1   --> A              
     e( 12 - 12) =     20.33686  eV     1   --> A              

 **************************************************************************

 **************************************************************************

                    xk=(  -0.13258,  -0.66291,  -0.26517  )

     Band symmetry, C_1 (1)     point group:

     e(  1 -  1) =     -2.34353  eV     1   --> A              
     e(  2 -  2) =     -1.02831  eV     1   --> A              
     e(  3 -  3) =      1.73466  eV     1   --> A              
     e(  4 -  4) =      3.28179  eV     1   --> A              
     e(  5 -  5) =      7.90450  eV     1   --> A              
     e(  6 -  6) =     10.66717  eV     1   --> A              
     e(  7 -  7) =     11.66432  eV     1   --> A              
     e(  8 -  8) =     12.77922  eV     1   --> A              
     e(  9 -  9) =     14.08711  eV     1   --> A              
     e( 10 - 10) =     15.67539  eV     1   --> A              
     e( 11 - 11) =     19.18943  eV     1   --> A              
     e( 12 - 12) =     20.18515  eV     1   --> A              

 **************************************************************************

 **************************************************************************

                    xk=(  -0.12374,  -0.65407,  -0.28284  )

     Band symmetry, C_1 (1)     point group:

     e(  1 -  1) =     -2.36667  eV     1   --> A              
     e(  2 -  2) =     -0.99951  eV     1   --> A              
     e(  3 -  3) =      1.76927  eV     1   --> A              
     e(  4 -  4) =      3.17859  eV     1   --> A              
     e(  5 -  5) =      8.19103  eV     1   --> A              
     e(  6 -  6) =     10.74598  eV     1   --> A              
     e(  7 -  7) =     11.33885  eV     1   --> A              
     e(  8 -  8) =     12.56230  eV     1   --> A              
     e(  9 -  9) =     14.13624  eV     1   --> A              
     e( 10 - 10) =     15.99406  eV     1   --> A              
     e( 11 - 11) =     18.87286  eV     1   --> A              
     e( 12 - 12) =     20.06063  eV     1   --> A              

 **************************************************************************

 **************************************************************************

                    xk=(  -0.11490,  -0.64523,  -0.30052  )

     Band symmetry, C_1 (1)     point group:

     e(  1 -  1) =     -2.38525  eV     1   --> A              
     e(  2 -  2) =     -0.97617  eV     1   --> A              
     e(  3 -  3) =      1.80698  eV     1   --> A              
     e(  4 -  4) =      3.08252  eV     1   --> A              
     e(  5 -  5) =      8.50204  eV     1   --> A              
     e(  6 -  6) =     10.62054  eV     1   --> A              
     e(  7 -  7) =     11.22553  eV     1   --> A              
     e(  8 -  8) =     12.35512  eV     1   --> A              
     e(  9 -  9) =     14.17635  eV     1   --> A              
     e( 10 - 10) =     16.30972  eV     1   --> A              
     e( 11 - 11) =     18.55637  eV     1   --> A              
     e( 12 - 12) =     19.96331  eV     1   --> A              

 **************************************************************************

 **************************************************************************

                    xk=(  -0.10607,  -0.63640,  -0.31820  )

     Band symmetry, C_1 (1)     point group:

     e(  1 -  1) =     -2.39882  eV     1   --> A              
     e(  2 -  2) =     -0.95904  eV     1   --> A              
     e(  3 -  3) =      1.84213  eV     1   --> A              
     e(  4 -  4) =      3.00316  eV     1   --> A              
     e(  5 -  5) =      8.83160  eV     1   --> A              
     e(  6 -  6) =     10.30252  eV     1   --> A              
     e(  7 -  7) =     11.31213  eV     1   --> A              
     e(  8 -  8) =     12.16211  eV     1   --> A              
     e(  9 -  9) =     14.20605  eV     1   --> A              
     e( 10 - 10) =     16.61131  eV     1   --> A              
     e( 11 - 11) =     18.25308  eV     1   --> A              
     e( 12 - 12) =     19.89337  eV     1   --> A              

 **************************************************************************

 **************************************************************************

                    xk=(  -0.09723,  -0.62756,  -0.33588  )

     Band symmetry, C_1 (1)     point group:

     e(  1 -  1) =     -2.40708  eV     1   --> A              
     e(  2 -  2) =     -0.94859  eV     1   --> A              
     e(  3 -  3) =      1.86768  eV     1   --> A              
     e(  4 -  4) =      2.95012  eV     1   --> A              
     e(  5 -  5) =      9.17025  eV     1   --> A              
     e(  6 -  6) =      9.94761  eV     1   --> A              
     e(  7 -  7) =     11.43575  eV     1   --> A              
     e(  8 -  8) =     11.99840  eV     1   --> A              
     e(  9 -  9) =     14.22431  eV     1   --> A              
     e( 10 - 10) =     16.86790  eV     1   --> A              
     e( 11 - 11) =     17.99509  eV     1   --> A              
     e( 12 - 12) =     19.85118  eV     1   --> A              

 **************************************************************************

 **************************************************************************

                    xk=(  -0.08839,  -0.61872,  -0.35355  )

     zone border point and non-symmorphic group 
     symmetry decomposition not available

 **************************************************************************

 **************************************************************************

                    xk=(  -0.07955,  -0.60988,  -0.37123  )

     point group C_1 (1)    
     there are  1 classes
     the character table:

       E    
A      1.00

     the symmetry operations in each class and the name of the first element:

     E        1
                                                                 

     Band symmetry, C_1 (1)     point group:

     e(  1 -  1) =     -2.40708  eV     1   --> A              
     e(  2 -  2) =     -0.94859  eV     1   --> A              
     e(  3 -  3) =      1.86768  eV     1   --> A              
     e(  4 -  4) =      2.95012  eV     1   --> A              
     e(  5 -  5) =      9.17025  eV     1   --> A              
     e(  6 -  6) =      9.94761  eV     1   --> A              
     e(  7 -  7) =     11.43575  eV     1   --> A              
     e(  8 -  8) =     11.99840  eV     1   --> A              
     e(  9 -  9) =     14.22431  eV     1   --> A              
     e( 10 - 10) =     16.86790  eV     1   --> A              
     e( 11 - 11) =     17.99509  eV     1   --> A              
     e( 12 - 12) =     19.85118  eV     1   --> A              

 **************************************************************************

 **************************************************************************

                    xk=(  -0.07071,  -0.60104,  -0.38891  )

     Band symmetry, C_1 (1)     point group:

     e(  1 -  1) =     -2.39882  eV     1   --> A              
     e(  2 -  2) =     -0.95904  eV     1   --> A              
     e(  3 -  3) =      1.84213  eV     1   --> A              
     e(  4 -  4) =      3.00316  eV     1   --> A              
     e(  5 -  5) =      8.83160  eV     1   --> A              
     e(  6 -  6) =     10.30252  eV     1   --> A              
     e(  7 -  7) =     11.31213  eV     1   --> A              
     e(  8 -  8) =     12.16211  eV     1   --> A              
     e(  9 -  9) =     14.20605  eV     1   --> A              
     e( 10 - 10) =     16.61131  eV     1   --> A              
     e( 11 - 11) =     18.25308  eV     1   --> A              
     e( 12 - 12) =     19.89337  eV     1   --> A              

 **************************************************************************

 **************************************************************************

                    xk=(  -0.06187,  -0.59220,  -0.40659  )

     Band symmetry, C_1 (1)     point group:

     e(  1 -  1) =     -2.38525  eV     1   --> A              
     e(  2 -  2) =     -0.97617  eV     1   --> A              
     e(  3 -  3) =      1.80698  eV     1   --> A              
     e(  4 -  4) =      3.08252  eV     1   --> A              
     e(  5 -  5) =      8.50204  eV     1   --> A              
     e(  6 -  6) =     10.62054  eV     1   --> A              
     e(  7 -  7) =     11.22553  eV     1   --> A              
     e(  8 -  8) =     12.35512  eV     1   --> A              
     e(  9 -  9) =     14.17635  eV     1   --> A              
     e( 10 - 10) =     16.30972  eV     1   --> A              
     e( 11 - 11) =     18.55637  eV     1   --> A              
     e( 12 - 12) =     19.96331  eV     1   --> A              

 **************************************************************************

 **************************************************************************

                    xk=(  -0.05303,  -0.58336,  -0.42426  )

     Band symmetry, C_1 (1)     point group:

     e(  1 -  1) =     -2.36667  eV     1   --> A              
     e(  2 -  2) =     -0.99951  eV     1   --> A              
     e(  3 -  3) =      1.76927  eV     1   --> A              
     e(  4 -  4) =      3.17859  eV     1   --> A              
     e(  5 -  5) =      8.19103  eV     1   --> A              
     e(  6 -  6) =     10.74598  eV     1   --> A              
     e(  7 -  7) =     11.33885  eV     1   --> A              
     e(  8 -  8) =     12.56230  eV     1   --> A              
     e(  9 -  9) =     14.13624  eV     1   --> A              
     e( 10 - 10) =     15.99406  eV     1   --> A              
     e( 11 - 11) =     18.87286  eV     1   --> A              
     e( 12 - 12) =     20.06063  eV     1   --> A              

 **************************************************************************

 **************************************************************************

                    xk=(  -0.04419,  -0.57452,  -0.44194  )

     Band symmetry, C_1 (1)     point group:

     e(  1 -  1) =     -2.34353  eV     1   --> A              
     e(  2 -  2) =     -1.02831  eV     1   --> A              
     e(  3 -  3) =      1.73466  eV     1   --> A              
     e(  4 -  4) =      3.28179  eV     1   --> A              
     e(  5 -  5) =      7.90450  eV     1   --> A              
     e(  6 -  6) =     10.66717  eV     1   --> A              
     e(  7 -  7) =     11.66432  eV     1   --> A              
     e(  8 -  8) =     12.77922  eV     1   --> A              
     e(  9 -  9) =     14.08711  eV     1   --> A              
     e( 10 - 10) =     15.67539  eV     1   --> A              
     e( 11 - 11) =     19.18943  eV     1   --> A              
     e( 12 - 12) =     20.18515  eV     1   --> A              

 **************************************************************************

 **************************************************************************

                    xk=(  -0.03536,  -0.56569,  -0.45962  )

     Band symmetry, C_1 (1)     point group:

     e(  1 -  1) =     -2.31651  eV     1   --> A              
     e(  2 -  2) =     -1.06153  eV     1   --> A              
     e(  3 -  3) =      1.70712  eV     1   --> A              
     e(  4 -  4) =      3.38275  eV     1   --> A              
     e(  5 -  5) =      7.64873  eV     1   --> A              
     e(  6 -  6) =     10.53670  eV     1   --> A              
     e(  7 -  7) =     12.04657  eV     1   --> A              
     e(  8 -  8) =     13.00479  eV     1   --> A              
     e(  9 -  9) =     14.03078  eV     1   --> A              
     e( 10 - 10) =     15.35954  eV     1   --> A              
     e( 11 - 11) =     19.49686  eV     1   --> A              
     e( 12 - 12) =     20.33686  eV     1   --> A              

 **************************************************************************

 **************************************************************************

                    xk=(  -0.02652,  -0.55685,  -0.47730  )

     Band symmetry, C_1 (1)     point group:

     e(  1 -  1) =     -2.28653  eV     1   --> A              
     e(  2 -  2) =     -1.09774  eV     1   --> A              
     e(  3 -  3) =      1.68911  eV     1   --> A              
     e(  4 -  4) =      3.47193  eV     1   --> A              
     e(  5 -  5) =      7.43104  eV     1   --> A              
     e(  6 -  6) =     10.39749  eV     1   --> A              
     e(  7 -  7) =     12.43589  eV     1   --> A              
     e(  8 -  8) =     13.23967  eV     1   --> A              
     e(  9 -  9) =     13.97002  eV     1   --> A              
     e( 10 - 10) =     15.05169  eV     1   --> A              
     e( 11 - 11) =     19.78531  eV     1   --> A              
     e( 12 - 12) =     20.51382  eV     1   --> A              

 **************************************************************************

 **************************************************************************

                    xk=(  -0.01768,  -0.54801,  -0.49497  )

     Band symmetry, C_1 (1)     point group:

     e(  1 -  1) =     -2.25484  eV     1   --> A              
     e(  2 -  2) =     -1.13509  eV     1   --> A              
     e(  3 -  3) =      1.68205  eV     1   --> A              
     e(  4 -  4) =      3.53964  eV     1   --> A              
     e(  5 -  5) =      7.25972  eV     1   --> A              
     e(  6 -  6) =     10.25938  eV     1   --> A              
     e(  7 -  7) =     12.80750  eV     1   --> A              
     e(  8 -  8) =     13.48505  eV     1   --> A              
     e(  9 -  9) =     13.91140  eV     1   --> A              
     e( 10 - 10) =     14.76001  eV     1   --> A              
     e( 11 - 11) =     20.04292  eV     1   --> A              
     e( 12 - 12) =     20.69882  eV     1   --> A              

 **************************************************************************

 **************************************************************************

                    xk=(  -0.00884,  -0.53917,  -0.51265  )

     Band symmetry, C_1 (1)     point group:

     e(  1 -  1) =     -2.22315  eV     1   --> A              
     e(  2 -  2) =     -1.17123  eV     1   --> A              
     e(  3 -  3) =      1.68653  eV     1   --> A              
     e(  4 -  4) =      3.57674  eV     1   --> A              
     e(  5 -  5) =      7.14302  eV     1   --> A              
     e(  6 -  6) =     10.12569  eV     1   --> A              
     e(  7 -  7) =     13.12355  eV     1   --> A              
     e(  8 -  8) =     13.72214  eV     1   --> A              
     e(  9 -  9) =     13.88640  eV     1   --> A              
     e( 10 - 10) =     14.50659  eV     1   --> A              
     e( 11 - 11) =     20.25155  eV     1   --> A              
     e( 12 - 12) =     20.79082  eV     1   --> A              

 **************************************************************************

 **************************************************************************

                    xk=(   0.00000,  -0.53033,  -0.53033  )

     point group C_2v (mm2) 
     there are  4 classes
     the character table:

       E     C2    s_v   s_v' 
A_1    1.00  1.00  1.00  1.00
A_2    1.00  1.00 -1.00 -1.00
B_1    1.00 -1.00  1.00 -1.00
B_2    1.00 -1.00 -1.00  1.00

     the symmetry operations in each class and the name of the first element:

     E        1
                                                                 
     C2       2
                                                                 
     s_v      4
                                                                 
     s_v'     3
                                                                 

     Band symmetry, C_2v (mm2)  point group:

     e(  1 -  1) =     -2.19365  eV     1   --> A_1  D_1  S_1  
     e(  2 -  2) =     -1.20334  eV     1   --> B_1  D_3  S_3  
     e(  3 -  3) =      1.70263  eV     1   --> A_1  D_1  S_1  
     e(  4 -  4) =      3.57631  eV     1   --> A_2  D_2  S_2  
     e(  5 -  5) =      7.08740  eV     1   --> B_1  D_3  S_3  
     e(  6 -  6) =      9.99786  eV     1   --> A_1  D_1  S_1  
     e(  7 -  7) =     13.30368  eV     1   --> B_2  D_4  S_4  
     e(  8 -  8) =     13.83147  eV     1   --> A_1  D_1  S_1  
     e(  9 -  9) =     13.98386  eV     1   --> B_1  D_3  S_3  
     e( 10 - 10) =     14.40058  eV     1   --> A_2  D_2  S_2  
     e( 11 - 11) =     20.34017  eV     1   --> B_1  D_3  S_3  
     e( 12 - 12) =     20.71131  eV     1   --> A_2  D_2  S_2  

 **************************************************************************

 **************************************************************************

                    xk=(   0.00000,  -0.51880,  -0.51880  )

     Band symmetry, C_2v (mm2)  point group:

     e(  1 -  1) =     -2.26930  eV     1   --> A_1  D_1  S_1  
     e(  2 -  2) =     -1.12518  eV     1   --> B_1  D_3  S_3  
     e(  3 -  3) =      1.65265  eV     1   --> A_1  D_1  S_1  
     e(  4 -  4) =      3.63132  eV     1   --> A_2  D_2  S_2  
     e(  5 -  5) =      7.15122  eV     1   --> B_1  D_3  S_3  
     e(  6 -  6) =     10.32512  eV     1   --> A_1  D_1  S_1  
     e(  7 -  7) =     13.10723  eV     1   --> B_2  D_4  S_4  
     e(  8 -  8) =     13.62721  eV     1   --> A_1  D_1  S_1  
     e(  9 -  9) =     13.82471  eV     1   --> B_1  D_3  S_3  
     e( 10 - 10) =     14.22783  eV     1   --> A_2  D_2  S_2  
     e( 11 - 11) =     20.41726  eV     1   --> B_1  D_3  S_3  
     e( 12 - 12) =     20.87265  eV     1   --> A_2  D_2  S_2  

 **************************************************************************

 **************************************************************************

                    xk=(   0.00000,  -0.50727,  -0.50727  )

     Band symmetry, C_2v (mm2)  point group:

     e(  1 -  1) =     -2.35243  eV     1   --> A_1  D_1  S_1  
     e(  2 -  2) =     -1.04215  eV     1   --> B_1  D_3  S_3  
     e(  3 -  3) =      1.61660  eV     1   --> A_1  D_1  S_1  
     e(  4 -  4) =      3.68925  eV     1   --> A_2  D_2  S_2  
     e(  5 -  5) =      7.21844  eV     1   --> B_1  D_3  S_3  
     e(  6 -  6) =     10.65571  eV     1   --> A_1  D_1  S_1  
     e(  7 -  7) =     12.91347  eV     1   --> B_2  D_4  S_4  
     e(  8 -  8) =     13.42922  eV     1   --> A_1  D_1  S_1  
     e(  9 -  9) =     13.66718  eV     1   --> B_1  D_3  S_3  
     e( 10 - 10) =     14.05924  eV     1   --> A_2  D_2  S_2  
     e( 11 - 11) =     20.43008  eV     1   --> B_1  D_3  S_3  
     e( 12 - 12) =     21.03112  eV     1   --> A_2  D_2  S_2  

 **************************************************************************

 **************************************************************************

                    xk=(   0.00000,  -0.49574,  -0.49574  )

     Band symmetry, C_2v (mm2)  point group:

     e(  1 -  1) =     -2.44260  eV     1   --> A_1  D_1  S_1  
     e(  2 -  2) =     -0.95426  eV     1   --> B_1  D_3  S_3  
     e(  3 -  3) =      1.59439  eV     1   --> A_1  D_1  S_1  
     e(  4 -  4) =      3.74999  eV     1   --> A_2  D_2  S_2  
     e(  5 -  5) =      7.28889  eV     1   --> B_1  D_3  S_3  
     e(  6 -  6) =     10.98735  eV     1   --> A_1  D_1  S_1  
     e(  7 -  7) =     12.72266  eV     1   --> B_2  D_4  S_4  
     e(  8 -  8) =     13.23933  eV     1   --> A_1  D_1  S_1  
     e(  9 -  9) =     13.51175  eV     1   --> B_1  D_3  S_3  
     e( 10 - 10) =     13.89513  eV     1   --> A_2  D_2  S_2  
     e( 11 - 11) =     20.36098  eV     1   --> B_1  D_3  S_3  
     e( 12 - 12) =     20.99475  eV     1   --> A_1  D_1  S_1  

 **************************************************************************

 **************************************************************************

                    xk=(   0.00000,  -0.48421,  -0.48421  )

     Band symmetry, C_2v (mm2)  point group:

     e(  1 -  1) =     -2.53926  eV     1   --> A_1  D_1  S_1  
     e(  2 -  2) =     -0.86153  eV     1   --> B_1  D_3  S_3  
     e(  3 -  3) =      1.58572  eV     1   --> A_1  D_1  S_1  
     e(  4 -  4) =      3.81340  eV     1   --> A_2  D_2  S_2  
     e(  5 -  5) =      7.36242  eV     1   --> B_1  D_3  S_3  
     e(  6 -  6) =     11.31575  eV     1   --> A_1  D_1  S_1  
     e(  7 -  7) =     12.53502  eV     1   --> B_2  D_4  S_4  
     e(  8 -  8) =     13.06133  eV     1   --> A_1  D_1  S_1  
     e(  9 -  9) =     13.35885  eV     1   --> B_1  D_3  S_3  
     e( 10 - 10) =     13.73581  eV     1   --> A_2  D_2  S_2  
     e( 11 - 11) =     20.23172  eV     1   --> B_1  D_3  S_3  
     e( 12 - 12) =     20.80578  eV     1   --> A_1  D_1  S_1  

 **************************************************************************

 **************************************************************************

                    xk=(   0.00000,  -0.47269,  -0.47269  )

     Band symmetry, C_2v (mm2)  point group:

     e(  1 -  1) =     -2.64173  eV     1   --> A_1  D_1  S_1  
     e(  2 -  2) =     -0.76399  eV     1   --> B_1  D_3  S_3  
     e(  3 -  3) =      1.59011  eV     1   --> A_1  D_1  S_1  
     e(  4 -  4) =      3.87935  eV     1   --> A_2  D_2  S_2  
     e(  5 -  5) =      7.43883  eV     1   --> B_1  D_3  S_3  
     e(  6 -  6) =     11.63096  eV     1   --> A_1  D_1  S_1  
     e(  7 -  7) =     12.35073  eV     1   --> B_2  D_4  S_4  
     e(  8 -  8) =     12.90468  eV     1   --> A_1  D_1  S_1  
     e(  9 -  9) =     13.20889  eV     1   --> B_1  D_3  S_3  
     e( 10 - 10) =     13.58157  eV     1   --> A_2  D_2  S_2  
     e( 11 - 11) =     20.07290  eV     1   --> B_1  D_3  S_3  
     e( 12 - 12) =     20.61925  eV     1   --> A_1  D_1  S_1  

 **************************************************************************

 **************************************************************************

                    xk=(   0.00000,  -0.46116,  -0.46116  )

     Band symmetry, C_2v (mm2)  point group:

     e(  1 -  1) =     -2.74922  eV     1   --> A_1  D_1  S_1  
     e(  2 -  2) =     -0.66163  eV     1   --> B_1  D_3  S_3  
     e(  3 -  3) =      1.60698  eV     1   --> A_1  D_1  S_1  
     e(  4 -  4) =      3.94769  eV     1   --> A_2  D_2  S_2  
     e(  5 -  5) =      7.51790  eV     1   --> B_1  D_3  S_3  
     e(  6 -  6) =     11.90431  eV     1   --> A_1  D_1  S_1  
     e(  7 -  7) =     12.16994  eV     1   --> B_2  D_4  S_4  
     e(  8 -  8) =     12.79748  eV     1   --> A_1  D_1  S_1  
     e(  9 -  9) =     13.06225  eV     1   --> B_1  D_3  S_3  
     e( 10 - 10) =     13.43270  eV     1   --> A_2  D_2  S_2  
     e( 11 - 11) =     19.90183  eV     1   --> B_1  D_3  S_3  
     e( 12 - 12) =     20.43656  eV     1   --> A_1  D_1  S_1  

 **************************************************************************

 **************************************************************************

                    xk=(   0.00000,  -0.44963,  -0.44963  )

     Band symmetry, C_2v (mm2)  point group:

     e(  1 -  1) =     -2.86093  eV     1   --> A_1  D_1  S_1  
     e(  2 -  2) =     -0.55449  eV     1   --> B_1  D_3  S_3  
     e(  3 -  3) =      1.63567  eV     1   --> A_1  D_1  S_1  
     e(  4 -  4) =      4.01825  eV     1   --> A_2  D_2  S_2  
     e(  5 -  5) =      7.59937  eV     1   --> B_1  D_3  S_3  
     e(  6 -  6) =     11.99279  eV     1   --> B_2  D_4  S_4  
     e(  7 -  7) =     12.05975  eV     1   --> A_1  D_1  S_1  
     e(  8 -  8) =     12.81513  eV     1   --> A_1  D_1  S_1  
     e(  9 -  9) =     12.91934  eV     1   --> B_1  D_3  S_3  
     e( 10 - 10) =     13.28947  eV     1   --> A_2  D_2  S_2  
     e( 11 - 11) =     19.72651  eV     1   --> B_1  D_3  S_3  
     e( 12 - 12) =     20.25875  eV     1   --> A_1  D_1  S_1  

 **************************************************************************

 **************************************************************************

                    xk=(   0.00000,  -0.43810,  -0.43810  )

     Band symmetry, C_2v (mm2)  point group:

     e(  1 -  1) =     -2.97606  eV     1   --> A_1  D_1  S_1  
     e(  2 -  2) =     -0.44258  eV     1   --> B_1  D_3  S_3  
     e(  3 -  3) =      1.67548  eV     1   --> A_1  D_1  S_1  
     e(  4 -  4) =      4.09084  eV     1   --> A_2  D_2  S_2  
     e(  5 -  5) =      7.68297  eV     1   --> B_1  D_3  S_3  
     e(  6 -  6) =     11.81940  eV     1   --> B_2  D_4  S_4  
     e(  7 -  7) =     12.04363  eV     1   --> A_1  D_1  S_1  
     e(  8 -  8) =     12.78052  eV     1   --> B_1  D_3  S_3  
     e(  9 -  9) =     13.01048  eV     1   --> A_1  D_1  S_1  
     e( 10 - 10) =     13.15215  eV     1   --> A_2  D_2  S_2  
     e( 11 - 11) =     19.55069  eV     1   --> B_1  D_3  S_3  
     e( 12 - 12) =     20.08674  eV     1   --> A_1  D_1  S_1  

 **************************************************************************

 **************************************************************************

                    xk=(   0.00000,  -0.42657,  -0.42657  )

     Band symmetry, C_2v (mm2)  point group:

     e(  1 -  1) =     -3.09381  eV     1   --> A_1  D_1  S_1  
     e(  2 -  2) =     -0.32592  eV     1   --> B_1  D_3  S_3  
     e(  3 -  3) =      1.72570  eV     1   --> A_1  D_1  S_1  
     e(  4 -  4) =      4.16528  eV     1   --> A_2  D_2  S_2  
     e(  5 -  5) =      7.76835  eV     1   --> B_1  D_3  S_3  
     e(  6 -  6) =     11.64986  eV     1   --> B_2  D_4  S_4  
     e(  7 -  7) =     11.93367  eV     1   --> A_1  D_1  S_1  
     e(  8 -  8) =     12.64618  eV     1   --> B_1  D_3  S_3  
     e(  9 -  9) =     13.02103  eV     1   --> A_2  D_2  S_2  
     e( 10 - 10) =     13.30486  eV     1   --> A_1  D_1  S_1  
     e( 11 - 11) =     19.37628  eV     1   --> B_1  D_3  S_3  
     e( 12 - 12) =     19.92152  eV     1   --> A_1  D_1  S_1  

 **************************************************************************

 **************************************************************************

                    xk=(   0.00000,  -0.41504,  -0.41504  )

     Band symmetry, C_2v (mm2)  point group:

     e(  1 -  1) =     -3.21343  eV     1   --> A_1  D_1  S_1  
     e(  2 -  2) =     -0.20454  eV     1   --> B_1  D_3  S_3  
     e(  3 -  3) =      1.78565  eV     1   --> A_1  D_1  S_1  
     e(  4 -  4) =      4.24135  eV     1   --> A_2  D_2  S_2  
     e(  5 -  5) =      7.85515  eV     1   --> B_1  D_3  S_3  
     e(  6 -  6) =     11.48426  eV     1   --> B_2  D_4  S_4  
     e(  7 -  7) =     11.79269  eV     1   --> A_1  D_1  S_1  
     e(  8 -  8) =     12.51674  eV     1   --> B_1  D_3  S_3  
     e(  9 -  9) =     12.89638  eV     1   --> A_2  D_2  S_2  
     e( 10 - 10) =     13.63422  eV     1   --> A_1  D_1  S_1  
     e( 11 - 11) =     19.20428  eV     1   --> B_1  D_3  S_3  
     e( 12 - 12) =     19.76421  eV     1   --> A_1  D_1  S_1  

 **************************************************************************

 **************************************************************************

                    xk=(   0.00000,  -0.40351,  -0.40351  )

     Band symmetry, C_2v (mm2)  point group:

     e(  1 -  1) =     -3.33423  eV     1   --> A_1  D_1  S_1  
     e(  2 -  2) =     -0.07845  eV     1   --> B_1  D_3  S_3  
     e(  3 -  3) =      1.85468  eV     1   --> A_1  D_1  S_1  
     e(  4 -  4) =      4.31882  eV     1   --> A_2  D_2  S_2  
     e(  5 -  5) =      7.94292  eV     1   --> B_1  D_3  S_3  
     e(  6 -  6) =     11.32268  eV     1   --> B_2  D_4  S_4  
     e(  7 -  7) =     11.64202  eV     1   --> A_1  D_1  S_1  
     e(  8 -  8) =     12.39261  eV     1   --> B_1  D_3  S_3  
     e(  9 -  9) =     12.77849  eV     1   --> A_2  D_2  S_2  
     e( 10 - 10) =     13.97562  eV     1   --> A_1  D_1  S_1  
     e( 11 - 11) =     19.03514  eV     1   --> B_1  D_3  S_3  
     e( 12 - 12) =     19.61621  eV     1   --> A_1  D_1  S_1  

 **************************************************************************

 **************************************************************************

                    xk=(   0.00000,  -0.39198,  -0.39198  )

     Band symmetry, C_2v (mm2)  point group:

     e(  1 -  1) =     -3.45557  eV     1   --> A_1  D_1  S_1  
     e(  2 -  2) =      0.05230  eV     1   --> B_1  D_3  S_3  
     e(  3 -  3) =      1.93216  eV     1   --> A_1  D_1  S_1  
     e(  4 -  4) =      4.39744  eV     1   --> A_2  D_2  S_2  
     e(  5 -  5) =      8.03118  eV     1   --> B_1  D_3  S_3  
     e(  6 -  6) =     11.16520  eV     1   --> B_2  D_4  S_4  
     e(  7 -  7) =     11.48907  eV     1   --> A_1  D_1  S_1  
     e(  8 -  8) =     12.27424  eV     1   --> B_1  D_3  S_3  
     e(  9 -  9) =     12.66765  eV     1   --> A_2  D_2  S_2  
     e( 10 - 10) =     14.31952  eV     1   --> A_1  D_1  S_1  
     e( 11 - 11) =     18.86893  eV     1   --> B_1  D_3  S_3  
     e( 12 - 12) =     19.47940  eV     1   --> A_1  D_1  S_1  

 **************************************************************************

 **************************************************************************

                    xk=(   0.00000,  -0.38045,  -0.38045  )

     Band symmetry, C_2v (mm2)  point group:

     e(  1 -  1) =     -3.57686  eV     1   --> A_1  D_1  S_1  
     e(  2 -  2) =      0.18770  eV     1   --> B_1  D_3  S_3  
     e(  3 -  3) =      2.01754  eV     1   --> A_1  D_1  S_1  
     e(  4 -  4) =      4.47696  eV     1   --> A_2  D_2  S_2  
     e(  5 -  5) =      8.11937  eV     1   --> B_1  D_3  S_3  
     e(  6 -  6) =     11.01187  eV     1   --> B_2  D_4  S_4  
     e(  7 -  7) =     11.33688  eV     1   --> A_1  D_1  S_1  
     e(  8 -  8) =     12.16211  eV     1   --> B_1  D_3  S_3  
     e(  9 -  9) =     12.56415  eV     1   --> A_2  D_2  S_2  
     e( 10 - 10) =     14.65999  eV     1   --> A_1  D_1  S_1  
     e( 11 - 11) =     18.70523  eV     1   --> B_1  D_3  S_3  
     e( 12 - 12) =     19.35630  eV     1   --> A_1  D_1  S_1  

 **************************************************************************

 **************************************************************************

                    xk=(   0.00000,  -0.36893,  -0.36893  )

     Band symmetry, C_2v (mm2)  point group:

     e(  1 -  1) =     -3.69759  eV     1   --> A_1  D_1  S_1  
     e(  2 -  2) =      0.32771  eV     1   --> B_1  D_3  S_3  
     e(  3 -  3) =      2.11027  eV     1   --> A_1  D_1  S_1  
     e(  4 -  4) =      4.55710  eV     1   --> A_2  D_2  S_2  
     e(  5 -  5) =      8.20685  eV     1   --> B_1  D_3  S_3  
     e(  6 -  6) =     10.86275  eV     1   --> B_2  D_4  S_4  
     e(  7 -  7) =     11.18691  eV     1   --> A_1  D_1  S_1  
     e(  8 -  8) =     12.05674  eV     1   --> B_1  D_3  S_3  
     e(  9 -  9) =     12.46828  eV     1   --> A_2  D_2  S_2  
     e( 10 - 10) =     14.99161  eV     1   --> A_1  D_1  S_1  
     e( 11 - 11) =     18.54279  eV     1   --> B_1  D_3  S_3  
     e( 12 - 12) =     19.25038  eV     1   --> A_1  D_1  S_1  

 **************************************************************************

 **************************************************************************

                    xk=(   0.00000,  -0.35740,  -0.35740  )

     Band symmetry, C_2v (mm2)  point group:

     e(  1 -  1) =     -3.81729  eV     1   --> A_1  D_1  S_1  
     e(  2 -  2) =      0.47230  eV     1   --> B_1  D_3  S_3  
     e(  3 -  3) =      2.20986  eV     1   --> A_1  D_1  S_1  
     e(  4 -  4) =      4.63755  eV     1   --> A_2  D_2  S_2  
     e(  5 -  5) =      8.29290  eV     1   --> B_1  D_3  S_3  
     e(  6 -  6) =     10.71789  eV     1   --> B_2  D_4  S_4  
     e(  7 -  7) =     11.03993  eV     1   --> A_1  D_1  S_1  
     e(  8 -  8) =     11.95866  eV     1   --> B_1  D_3  S_3  
     e(  9 -  9) =     12.38037  eV     1   --> A_2  D_2  S_2  
     e( 10 - 10) =     15.30821  eV     1   --> A_1  D_1  S_1  
     e( 11 - 11) =     18.37843  eV     1   --> B_1  D_3  S_3  
     e( 12 - 12) =     19.07418  eV     1   --> B_1  D_3  S_3  

 **************************************************************************

 **************************************************************************

                    xk=(   0.00000,  -0.34587,  -0.34587  )

     Band symmetry, C_2v (mm2)  point group:

     e(  1 -  1) =     -3.93555  eV     1   --> A_1  D_1  S_1  
     e(  2 -  2) =      0.62143  eV     1   --> B_1  D_3  S_3  
     e(  3 -  3) =      2.31586  eV     1   --> A_1  D_1  S_1  
     e(  4 -  4) =      4.71801  eV     1   --> A_2  D_2  S_2  
     e(  5 -  5) =      8.37672  eV     1   --> B_1  D_3  S_3  
     e(  6 -  6) =     10.57733  eV     1   --> B_2  D_4  S_4  
     e(  7 -  7) =     10.89638  eV     1   --> A_1  D_1  S_1  
     e(  8 -  8) =     11.86845  eV     1   --> B_1  D_3  S_3  
     e(  9 -  9) =     12.30072  eV     1   --> A_2  D_2  S_2  
     e( 10 - 10) =     15.60209  eV     1   --> A_1  D_1  S_1  
     e( 11 - 11) =     18.20368  eV     1   --> B_1  D_3  S_3  
     e( 12 - 12) =     18.72065  eV     1   --> B_1  D_3  S_3  

 **************************************************************************

 **************************************************************************

                    xk=(   0.00000,  -0.33434,  -0.33434  )

     Band symmetry, C_2v (mm2)  point group:

     e(  1 -  1) =     -4.05200  eV     1   --> A_1  D_1  S_1  
     e(  2 -  2) =      0.77506  eV     1   --> B_1  D_3  S_3  
     e(  3 -  3) =      2.42783  eV     1   --> A_1  D_1  S_1  
     e(  4 -  4) =      4.79815  eV     1   --> A_2  D_2  S_2  
     e(  5 -  5) =      8.45745  eV     1   --> B_1  D_3  S_3  
     e(  6 -  6) =     10.44112  eV     1   --> B_2  D_4  S_4  
     e(  7 -  7) =     10.75652  eV     1   --> A_1  D_1  S_1  
     e(  8 -  8) =     11.78670  eV     1   --> B_1  D_3  S_3  
     e(  9 -  9) =     12.22964  eV     1   --> A_2  D_2  S_2  
     e( 10 - 10) =     15.86376  eV     1   --> A_1  D_1  S_1  
     e( 11 - 11) =     17.99675  eV     1   --> B_1  D_3  S_3  
     e( 12 - 12) =     18.40736  eV     1   --> B_1  D_3  S_3  

 **************************************************************************

 **************************************************************************

                    xk=(   0.00000,  -0.32281,  -0.32281  )

     Band symmetry, C_2v (mm2)  point group:

     e(  1 -  1) =     -4.16631  eV     1   --> A_1  D_1  S_1  
     e(  2 -  2) =      0.93314  eV     1   --> B_1  D_3  S_3  
     e(  3 -  3) =      2.54538  eV     1   --> A_1  D_1  S_1  
     e(  4 -  4) =      4.87763  eV     1   --> A_2  D_2  S_2  
     e(  5 -  5) =      8.53414  eV     1   --> B_1  D_3  S_3  
     e(  6 -  6) =     10.30928  eV     1   --> B_2  D_4  S_4  
     e(  7 -  7) =     10.62052  eV     1   --> A_1  D_1  S_1  
     e(  8 -  8) =     11.71396  eV     1   --> B_1  D_3  S_3  
     e(  9 -  9) =     12.16745  eV     1   --> A_2  D_2  S_2  
     e( 10 - 10) =     16.08270  eV     1   --> A_1  D_1  S_1  
     e( 11 - 11) =     17.72764  eV     1   --> B_1  D_3  S_3  
     e( 12 - 12) =     18.16537  eV     1   --> B_1  D_3  S_3  

 **************************************************************************

 **************************************************************************

[...]

 **************************************************************************

 **************************************************************************

                    xk=(  -0.27133,  -0.27133,  -0.27133  )

     Band symmetry, C_3v (3m)   point group:

     e(  1 -  1) =     -4.13728  eV     1   --> A_1  L_1       
     e(  2 -  2) =     -0.05256  eV     1   --> A_1  L_1       
     e(  3 -  4) =      4.88902  eV     2   --> E    L_3       
     e(  5 -  5) =      7.47601  eV     1   --> A_1  L_1       
     e(  6 -  7) =      9.34664  eV     2   --> E    L_3       
     e(  8 -  8) =     13.60010  eV     1   --> A_1  L_1       
     e(  9 - 10) =     14.59293  eV     2   --> E    L_3       
     e( 11 - 11) =     15.49881  eV     1   --> A_1  L_1       
     e( 12 - 12) =     19.35020  eV     1   -->   ?

 **************************************************************************

 **************************************************************************

                    xk=(  -0.27955,  -0.27955,  -0.27955  )

     Band symmetry, C_3v (3m)   point group:

     e(  1 -  1) =     -4.05192  eV     1   --> A_1  L_1       
     e(  2 -  2) =     -0.20034  eV     1   --> A_1  L_1       
     e(  3 -  4) =      4.87087  eV     2   --> E    L_3       
     e(  5 -  5) =      7.45497  eV     1   --> A_1  L_1       
     e(  6 -  7) =      9.33059  eV     2   --> E    L_3       
     e(  8 -  8) =     13.57928  eV     1   --> A_1  L_1       
     e(  9 - 10) =     14.77995  eV     2   --> E    L_3       
     e( 11 - 11) =     15.68859  eV     1   --> A_1  L_1       
     e( 12 - 12) =     19.09354  eV     1   -->   ?

 **************************************************************************

 **************************************************************************

                    xk=(  -0.28778,  -0.28778,  -0.28778  )

     Band symmetry, C_3v (3m)   point group:

     e(  1 -  1) =     -3.96899  eV     1   --> A_1  L_1       
     e(  2 -  2) =     -0.33919  eV     1   --> A_1  L_1       
     e(  3 -  4) =      4.85461  eV     2   --> E    L_3       
     e(  5 -  5) =      7.43609  eV     1   --> A_1  L_1       
     e(  6 -  7) =      9.31525  eV     2   --> E    L_3       
     e(  8 -  8) =     13.55752  eV     1   --> A_1  L_1       
     e(  9 - 10) =     14.97311  eV     2   --> E    L_3       
     e( 11 - 11) =     15.88101  eV     1   --> A_1  L_1       
     e( 12 - 12) =     18.83624  eV     1   -->   ?

 **************************************************************************

 **************************************************************************

                    xk=(  -0.29600,  -0.29600,  -0.29600  )

     Band symmetry, C_3v (3m)   point group:

     e(  1 -  1) =     -3.88970  eV     1   --> A_1  L_1       
     e(  2 -  2) =     -0.46790  eV     1   --> A_1  L_1       
     e(  3 -  4) =      4.84025  eV     2   --> E    L_3       
     e(  5 -  5) =      7.41939  eV     1   --> A_1  L_1       
     e(  6 -  7) =      9.30097  eV     2   --> E    L_3       
     e(  8 -  8) =     13.53627  eV     1   --> A_1  L_1       
     e(  9 - 10) =     15.17171  eV     2   --> E    L_3       
     e( 11 - 11) =     16.07354  eV     1   --> A_1  L_1       
     e( 12 - 12) =     18.57990  eV     1   -->   ?

 **************************************************************************

 **************************************************************************

                    xk=(  -0.30422,  -0.30422,  -0.30422  )

     Band symmetry, C_3v (3m)   point group:

     e(  1 -  1) =     -3.81543  eV     1   --> A_1  L_1       
     e(  2 -  2) =     -0.58505  eV     1   --> A_1  L_1       
     e(  3 -  4) =      4.82780  eV     2   --> E    L_3       
     e(  5 -  5) =      7.40489  eV     1   --> A_1  L_1       
     e(  6 -  7) =      9.28804  eV     2   --> E    L_3       
     e(  8 -  8) =     13.51651  eV     1   --> A_1  L_1       
     e(  9 - 10) =     15.37495  eV     2   --> E    L_3       
     e( 11 - 11) =     16.26348  eV     1   --> A_1  L_1       
     e( 12 - 12) =     18.32592  eV     1   -->   ?

 **************************************************************************

 **************************************************************************

                    xk=(  -0.31244,  -0.31244,  -0.31244  )

     Band symmetry, C_3v (3m)   point group:

     e(  1 -  1) =     -3.74781  eV     1   --> A_1  L_1       
     e(  2 -  2) =     -0.68899  eV     1   --> A_1  L_1       
     e(  3 -  4) =      4.81725  eV     2   --> E    L_3       
     e(  5 -  5) =      7.39260  eV     1   --> A_1  L_1       
     e(  6 -  7) =      9.27670  eV     2   --> E    L_3       
     e(  8 -  8) =     13.49893  eV     1   --> A_1  L_1       
     e(  9 - 10) =     15.58169  eV     2   --> E    L_3       
     e( 11 - 11) =     16.44751  eV     1   --> A_1  L_1       
     e( 12 - 12) =     18.07583  eV     1   -->   ?

 **************************************************************************

 **************************************************************************

                    xk=(  -0.32066,  -0.32066,  -0.32066  )

     Band symmetry, C_3v (3m)   point group:

     e(  1 -  1) =     -3.68865  eV     1   --> A_1  L_1       
     e(  2 -  2) =     -0.77789  eV     1   --> A_1  L_1       
     e(  3 -  4) =      4.80862  eV     2   --> E    L_3       
     e(  5 -  5) =      7.38253  eV     1   --> A_1  L_1       
     e(  6 -  7) =      9.26716  eV     2   --> E    L_3       
     e(  8 -  8) =     13.48403  eV     1   --> A_1  L_1       
     e(  9 - 10) =     15.79013  eV     2   --> E    L_3       
     e( 11 - 11) =     16.62102  eV     1   --> A_1  L_1       
     e( 12 - 12) =     17.83168  eV     1   -->   ?

 **************************************************************************

 **************************************************************************

                    xk=(  -0.32889,  -0.32889,  -0.32889  )

     Band symmetry, C_3v (3m)   point group:

     e(  1 -  1) =     -3.63987  eV     1   --> A_1  L_1       
     e(  2 -  2) =     -0.84981  eV     1   --> A_1  L_1       
     e(  3 -  4) =      4.80191  eV     2   --> E    L_3       
     e(  5 -  5) =      7.37469  eV     1   --> A_1  L_1       
     e(  6 -  7) =      9.25958  eV     2   --> E    L_3       
     e(  8 -  8) =     13.47214  eV     1   --> A_1  L_1       
     e(  9 - 10) =     15.99682  eV     2   --> E    L_3       
     e( 11 - 11) =     16.77712  eV     1   --> A_1  L_1       
     e( 12 - 12) =     17.59708  eV     1   -->   ?

 **************************************************************************

 **************************************************************************

                    xk=(  -0.33711,  -0.33711,  -0.33711  )

     Band symmetry, C_3v (3m)   point group:

     e(  1 -  1) =     -3.60335  eV     1   --> A_1  L_1       
     e(  2 -  2) =     -0.90287  eV     1   --> A_1  L_1       
     e(  3 -  4) =      4.79712  eV     2   --> E    L_3       
     e(  5 -  5) =      7.36909  eV     1   --> A_1  L_1       
     e(  6 -  7) =      9.25408  eV     2   --> E    L_3       
     e(  8 -  8) =     13.46349  eV     1   --> A_1  L_1       
     e(  9 - 10) =     16.19376  eV     2   --> E    L_3       
     e( 11 - 11) =     16.90557  eV     1   --> A_1  L_1       
     e( 12 - 12) =     17.38014  eV     1   -->   ?

 **************************************************************************

 **************************************************************************

                    xk=(  -0.34533,  -0.34533,  -0.34533  )

     Band symmetry, C_3v (3m)   point group:

     e(  1 -  1) =     -3.58071  eV     1   --> A_1  L_1       
     e(  2 -  2) =     -0.93544  eV     1   --> A_1  L_1       
     e(  3 -  4) =      4.79424  eV     2   --> E    L_3       
     e(  5 -  5) =      7.36573  eV     1   --> A_1  L_1       
     e(  6 -  7) =      9.25075  eV     2   --> E    L_3       
     e(  8 -  8) =     13.45824  eV     1   --> A_1  L_1       
     e(  9 - 10) =     16.35864  eV     2   --> E    L_3       
     e( 11 - 11) =     16.99247  eV     1   --> A_1  L_1       
     e( 12 - 12) =     17.20324  eV     1   -->   ?

 **************************************************************************

 **************************************************************************

                    xk=(  -0.35355,  -0.35355,  -0.35355  )

     zone border point and non-symmorphic group 
     symmetry decomposition not available

 **************************************************************************

 **************************************************************************

                    xk=(  -0.33391,  -0.37320,  -0.35355  )

     zone border point and non-symmorphic group 
     symmetry decomposition not available

 **************************************************************************

 **************************************************************************

                    xk=(  -0.31427,  -0.39284,  -0.35355  )

     zone border point and non-symmorphic group 
     symmetry decomposition not available

 **************************************************************************

 **************************************************************************

                    xk=(  -0.29463,  -0.41248,  -0.35355  )

     zone border point and non-symmorphic group 
     symmetry decomposition not available

 **************************************************************************

 **************************************************************************

                    xk=(  -0.27499,  -0.43212,  -0.35355  )

     zone border point and non-symmorphic group 
     symmetry decomposition not available

 **************************************************************************

 **************************************************************************

                    xk=(  -0.25534,  -0.45176,  -0.35355  )

     zone border point and non-symmorphic group 
     symmetry decomposition not available

 **************************************************************************

 **************************************************************************

                    xk=(  -0.23570,  -0.47140,  -0.35355  )

     zone border point and non-symmorphic group 
     symmetry decomposition not available

 **************************************************************************

 **************************************************************************

                    xk=(  -0.21606,  -0.49105,  -0.35355  )

     zone border point and non-symmorphic group 
     symmetry decomposition not available

 **************************************************************************

 **************************************************************************

                    xk=(  -0.19642,  -0.51069,  -0.35355  )

     zone border point and non-symmorphic group 
     symmetry decomposition not available

 **************************************************************************

 **************************************************************************

                    xk=(  -0.17678,  -0.53033,  -0.35355  )

     zone border point and non-symmorphic group 
     symmetry decomposition not available

 **************************************************************************

 **************************************************************************

                    xk=(  -0.15713,  -0.54997,  -0.35355  )

     zone border point and non-symmorphic group 
     symmetry decomposition not available

 **************************************************************************

 **************************************************************************

                    xk=(  -0.13749,  -0.56961,  -0.35355  )

     zone border point and non-symmorphic group 
     symmetry decomposition not available

 **************************************************************************

 **************************************************************************

                    xk=(  -0.11785,  -0.58926,  -0.35355  )

     zone border point and non-symmorphic group 
     symmetry decomposition not available

 **************************************************************************

 **************************************************************************

                    xk=(  -0.09821,  -0.60890,  -0.35355  )

     zone border point and non-symmorphic group 
     symmetry decomposition not available

 **************************************************************************

 **************************************************************************

                    xk=(  -0.07857,  -0.62854,  -0.35355  )

     zone border point and non-symmorphic group 
     symmetry decomposition not available

 **************************************************************************

 **************************************************************************

                    xk=(  -0.05893,  -0.64818,  -0.35355  )

     zone border point and non-symmorphic group 
     symmetry decomposition not available

 **************************************************************************

 **************************************************************************

                    xk=(  -0.03928,  -0.66782,  -0.35355  )

     zone border point and non-symmorphic group 
     symmetry decomposition not available

 **************************************************************************

 **************************************************************************

                    xk=(  -0.01964,  -0.68746,  -0.35355  )

     zone border point and non-symmorphic group 
     symmetry decomposition not available

 **************************************************************************

 **************************************************************************

                    xk=(   0.00000,  -0.70711,  -0.35355  )

     zone border point and non-symmorphic group 
     symmetry decomposition not available

 **************************************************************************

 **************************************************************************

                    xk=(   0.00000,  -0.70711,  -0.33391  )

     zone border point and non-symmorphic group 
     symmetry decomposition not available

 **************************************************************************

 **************************************************************************

                    xk=(   0.00000,  -0.70711,  -0.31427  )

     zone border point and non-symmorphic group 
     symmetry decomposition not available

 **************************************************************************

 **************************************************************************

                    xk=(   0.00000,  -0.70711,  -0.29463  )

     zone border point and non-symmorphic group 
     symmetry decomposition not available

 **************************************************************************

 **************************************************************************

                    xk=(   0.00000,  -0.70711,  -0.27499  )

     zone border point and non-symmorphic group 
     symmetry decomposition not available

 **************************************************************************

 **************************************************************************

                    xk=(   0.00000,  -0.70711,  -0.25534  )

     zone border point and non-symmorphic group 
     symmetry decomposition not available

 **************************************************************************

 **************************************************************************

                    xk=(  -0.00000,  -0.70711,  -0.23570  )

     zone border point and non-symmorphic group 
     symmetry decomposition not available

 **************************************************************************

 **************************************************************************

                    xk=(   0.00000,  -0.70711,  -0.21606  )

     zone border point and non-symmorphic group 
     symmetry decomposition not available

 **************************************************************************

 **************************************************************************

                    xk=(  -0.00000,  -0.70711,  -0.19642  )

     zone border point and non-symmorphic group 
     symmetry decomposition not available

 **************************************************************************

 **************************************************************************

                    xk=(   0.00000,  -0.70711,  -0.17678  )

     zone border point and non-symmorphic group 
     symmetry decomposition not available

 **************************************************************************

 **************************************************************************

                    xk=(   0.00000,  -0.70711,  -0.15713  )

     zone border point and non-symmorphic group 
     symmetry decomposition not available

 **************************************************************************

 **************************************************************************

                    xk=(  -0.00000,  -0.70711,  -0.13749  )

     zone border point and non-symmorphic group 
     symmetry decomposition not available

 **************************************************************************

 **************************************************************************

                    xk=(   0.00000,  -0.70711,  -0.11785  )

     zone border point and non-symmorphic group 
     symmetry decomposition not available

 **************************************************************************

 **************************************************************************

                    xk=(   0.00000,  -0.70711,  -0.09821  )

     zone border point and non-symmorphic group 
     symmetry decomposition not available

 **************************************************************************

 **************************************************************************

                    xk=(   0.00000,  -0.70711,  -0.07857  )

     zone border point and non-symmorphic group 
     symmetry decomposition not available

 **************************************************************************

 **************************************************************************

                    xk=(   0.00000,  -0.70711,  -0.05893  )

     zone border point and non-symmorphic group 
     symmetry decomposition not available

 **************************************************************************

 **************************************************************************

                    xk=(   0.00000,  -0.70711,  -0.03928  )

     zone border point and non-symmorphic group 
     symmetry decomposition not available

 **************************************************************************

 **************************************************************************

                    xk=(  -0.00000,  -0.70711,  -0.01964  )

     zone border point and non-symmorphic group 
     symmetry decomposition not available

 **************************************************************************

 **************************************************************************

                    xk=(   0.00000,  -0.70711,   0.00000  )

     zone border point and non-symmorphic group 
     symmetry decomposition not available

 **************************************************************************

     BANDS        :      8.41s CPU      8.52s WALL


   This run was terminated on:  13:14:55  11Dec2022            

=------------------------------------------------------------------------------=
   JOB DONE.
=------------------------------------------------------------------------------=
