
     Program PWSCF v.7.1 starts on 10Dec2022 at 21:32:19 
        Git branch: develop
        Last git commit: 9ddde6fa44e0fb1c7debb78532a4b581a6ef82fd
        Last git commit date: Fri Oct 28 07:34:35 2022 +0000
        Last git commit subject: Merge branch 'fix_hubbardocc' into 'develop'

     This program is part of the open-source Quantum ESPRESSO suite
     for quantum simulation of materials; please cite
         "P. Giannozzi et al., J. Phys.:Condens. Matter 21 395502 (2009);
         "P. Giannozzi et al., J. Phys.:Condens. Matter 29 465901 (2017);
         "P. Giannozzi et al., J. Chem. Phys. 152 154105 (2020);
          URL http://www.quantum-espresso.org", 
     in publications or presentations arising from this work. More details at
     http://www.quantum-espresso.org/quote

     Parallel version (MPI), running on     1 processors

     MPI processes distributed on     1 nodes
     0 MiB available memory on the printing compute node when the environment starts

     Waiting for input...
     Reading input from standard input
Warning: card &CELL ignored
Warning: card / ignored

     Current dimensions of program PWSCF are:
     Max number of different atomic species (ntypx) = 10
     Max number of k-points (npk) =  40000
     Max angular momentum in pseudopotentials (lmaxx) =  4
     Message from routine setup:
     using ibrav=0 with symmetry is DISCOURAGED, use correct ibrav instead

     Subspace diagonalization in iterative solution of the eigenvalue problem:
     a serial algorithm will be used


     G-vector sticks info
     --------------------
     sticks:   dense  smooth     PW     G-vecs:    dense   smooth      PW
     Sum         877     877    265                17261    17261    2837

     Using Slab Decomposition



     bravais-lattice index     =            0
     lattice parameter (alat)  =       7.3075  a.u.
     unit-cell volume          =     275.9279 (a.u.)^3
     number of atoms/cell      =            2
     number of atomic types    =            1
     number of electrons       =         8.00
     number of Kohn-Sham states=            4
     kinetic-energy cutoff     =      60.0000  Ry
     charge density cutoff     =     240.0000  Ry
     scf convergence threshold =      1.0E-06
     mixing beta               =       0.7000
     number of iterations used =            8  plain     mixing
     Exchange-correlation= PBESOL
                           (   1   4  10   8   0   0   0)

     celldm(1)=   7.307523  celldm(2)=   0.000000  celldm(3)=   0.000000
     celldm(4)=   0.000000  celldm(5)=   0.000000  celldm(6)=   0.000000

     crystal axes: (cart. coord. in units of alat)
               a(1) = (  -0.707107  -0.707107   0.000000 )  
               a(2) = (  -0.707107   0.000000  -0.707107 )  
               a(3) = (   0.000000  -0.707107  -0.707107 )  

     reciprocal axes: (cart. coord. in units 2 pi/alat)
               b(1) = ( -0.707107 -0.707107  0.707107 )  
               b(2) = ( -0.707107  0.707107 -0.707107 )  
               b(3) = (  0.707107 -0.707107 -0.707107 )  


     PseudoPot. # 1 for Si read from file:
     ../pseudo/Si.pbesol-n-rrkjus_psl.1.0.0.UPF
     MD5 check sum: c4212819de858c94c3a1644338846ac9
     Pseudo is Ultrasoft + core correction, Zval =  4.0
     Generated using "atomic" code by A. Dal Corso  v.6.0 svn rev. 13079
     Using radial grid of 1141 points,  6 beta functions with: 
                l(1) =   0
                l(2) =   0
                l(3) =   1
                l(4) =   1
                l(5) =   2
                l(6) =   2
     Q(r) pseudized with 0 coefficients 


     atomic species   valence    mass     pseudopotential
        Si             4.00    28.08550     Si( 1.00)

     48 Sym. Ops., with inversion, found (24 have fractional translation)



   Cartesian axes

     site n.     atom                  positions (alat units)
         1           Si  tau(   1) = (  -0.3535534  -0.3535534  -0.3535534  )
         2           Si  tau(   2) = (  -0.7071068  -0.7071068  -0.7071068  )

     number of k points=    16
                       cart. coord. in units 2pi/alat
        k(    1) = (   0.0000000   0.0000000   0.0000000), wk =   0.0092593
        k(    2) = (   0.1178511  -0.1178511  -0.1178511), wk =   0.0740741
        k(    3) = (   0.2357023  -0.2357023  -0.2357023), wk =   0.0740741
        k(    4) = (  -0.3535534   0.3535534   0.3535534), wk =   0.0370370
        k(    5) = (   0.0000000   0.0000000  -0.2357023), wk =   0.0555556
        k(    6) = (   0.1178511  -0.1178511  -0.3535534), wk =   0.2222222
        k(    7) = (  -0.4714045   0.4714045   0.2357023), wk =   0.2222222
        k(    8) = (  -0.3535534   0.3535534   0.1178511), wk =   0.2222222
        k(    9) = (  -0.2357023   0.2357023  -0.0000000), wk =   0.1111111
        k(   10) = (   0.0000000   0.0000000  -0.4714045), wk =   0.0555556
        k(   11) = (  -0.5892557   0.5892557   0.1178511), wk =   0.2222222
        k(   12) = (  -0.4714045   0.4714045   0.0000000), wk =   0.1111111
        k(   13) = (   0.0000000   0.0000000   0.7071068), wk =   0.0277778
        k(   14) = (  -0.7071068   0.4714045   0.2357023), wk =   0.2222222
        k(   15) = (  -0.5892557   0.3535534   0.1178511), wk =   0.2222222
        k(   16) = (  -0.0000000  -0.2357023   0.7071068), wk =   0.1111111

     Dense  grid:    17261 G-vectors     FFT dimensions: (  40,  40,  40)

     Estimated max dynamical RAM per process >      65.77 MB

     Initial potential from superposition of free atoms

     starting charge       7.9989, renormalised to       8.0000
     Starting wfcs are    8 randomized atomic wfcs

     total cpu time spent up to now is        1.1 secs

     Self-consistent Calculation

     iteration #  1     ecut=    60.00 Ry     beta= 0.70
     Davidson diagonalization with overlap
     ethr =  1.00E-02,  avg # of iterations =  2.0

     Threshold (ethr) on eigenvalues was too large:
     Diagonalizing with lowered threshold

     Davidson diagonalization with overlap
     ethr =  5.91E-04,  avg # of iterations =  1.6

     total cpu time spent up to now is        1.6 secs

     total energy              =     -22.67304709 Ry
     estimated scf accuracy    <       0.05160831 Ry

     iteration #  2     ecut=    60.00 Ry     beta= 0.70
     Davidson diagonalization with overlap
     ethr =  6.45E-04,  avg # of iterations =  1.0

     total cpu time spent up to now is        1.8 secs

     total energy              =     -22.67484276 Ry
     estimated scf accuracy    <       0.00249311 Ry

     iteration #  3     ecut=    60.00 Ry     beta= 0.70
     Davidson diagonalization with overlap
     ethr =  3.12E-05,  avg # of iterations =  3.1

     total cpu time spent up to now is        2.1 secs

     total energy              =     -22.67566760 Ry
     estimated scf accuracy    <       0.00013155 Ry

     iteration #  4     ecut=    60.00 Ry     beta= 0.70
     Davidson diagonalization with overlap
     ethr =  1.64E-06,  avg # of iterations =  3.4

     total cpu time spent up to now is        2.3 secs

     total energy              =     -22.67571479 Ry
     estimated scf accuracy    <       0.00003549 Ry

     iteration #  5     ecut=    60.00 Ry     beta= 0.70
     Davidson diagonalization with overlap
     ethr =  4.44E-07,  avg # of iterations =  2.1

     total cpu time spent up to now is        2.6 secs

     End of self-consistent calculation

          k = 0.0000 0.0000 0.0000 (  2109 PWs)   bands (ev):

    -5.8989   5.9492   5.9492   5.9492

          k = 0.1179-0.1179-0.1179 (  2151 PWs)   bands (ev):

    -5.5430   3.5638   5.5025   5.5025

          k = 0.2357-0.2357-0.2357 (  2151 PWs)   bands (ev):

    -4.5423   0.6423   4.9584   4.9584

          k =-0.3536 0.3536 0.3536 (  2138 PWs)   bands (ev):

    -3.6024  -0.9709   4.7625   4.7625

          k = 0.0000 0.0000-0.2357 (  2145 PWs)   bands (ev):

    -5.4218   3.8876   4.7671   4.7671

          k = 0.1179-0.1179-0.3536 (  2158 PWs)   bands (ev):

    -4.6184   1.5244   3.9598   4.2205

          k =-0.4714 0.4714 0.2357 (  2161 PWs)   bands (ev):

    -3.4451  -0.6141   3.1813   4.1910

          k =-0.3536 0.3536 0.1179 (  2160 PWs)   bands (ev):

    -3.8241  -0.0235   2.9158   4.6649

          k =-0.2357 0.2357-0.0000 (  2149 PWs)   bands (ev):

    -4.9633   2.2346   3.5502   5.3896

          k = 0.0000 0.0000-0.4714 (  2181 PWs)   bands (ev):

    -4.0224   0.9493   3.5567   3.5567

          k =-0.5893 0.5893 0.1179 (  2161 PWs)   bands (ev):

    -2.8758  -0.5820   2.3456   3.4219

          k =-0.4714 0.4714 0.0000 (  2185 PWs)   bands (ev):

    -2.6833  -0.7827   1.5704   3.8593

          k = 0.0000 0.0000 0.7071 (  2200 PWs)   bands (ev):

    -1.8152  -1.8152   3.1272   3.1272

          k =-0.7071 0.4714 0.2357 (  2166 PWs)   bands (ev):

    -3.6430   0.3277   2.4049   3.6725

          k =-0.5893 0.3536 0.1179 (  2194 PWs)   bands (ev):

    -2.6735  -0.8534   1.9668   3.2104

          k =-0.0000-0.2357 0.7071 (  2174 PWs)   bands (ev):

    -1.6977  -1.6977   2.3340   2.3340

     highest occupied level (ev):     5.9492

!    total energy              =     -22.67572165 Ry
     estimated scf accuracy    <       0.00000013 Ry

     The total energy is the sum of the following terms:
     one-electron contribution =       5.01590373 Ry
     hartree contribution      =       1.10270693 Ry
     xc contribution           =     -12.11435399 Ry
     ewald contribution        =     -16.67997832 Ry

     convergence has been achieved in   5 iterations

     Writing all to output data dir ./out/Si.save/

     init_run     :      0.92s CPU      0.94s WALL (       1 calls)
     electrons    :      1.49s CPU      1.50s WALL (       1 calls)

     Called by init_run:
     wfcinit      :      0.38s CPU      0.39s WALL (       1 calls)
     potinit      :      0.02s CPU      0.02s WALL (       1 calls)
     hinit0       :      0.48s CPU      0.49s WALL (       1 calls)

     Called by electrons:
     c_bands      :      1.04s CPU      1.05s WALL (       6 calls)
     sum_band     :      0.28s CPU      0.28s WALL (       6 calls)
     v_of_rho     :      0.11s CPU      0.12s WALL (       6 calls)
     newd         :      0.09s CPU      0.10s WALL (       6 calls)
     mix_rho      :      0.00s CPU      0.01s WALL (       6 calls)

     Called by c_bands:
     init_us_2    :      0.07s CPU      0.07s WALL (     208 calls)
     init_us_2:cp :      0.07s CPU      0.07s WALL (     208 calls)
     cegterg      :      0.83s CPU      0.84s WALL (      96 calls)

     Called by *egterg:
     cdiaghg      :      0.02s CPU      0.02s WALL (     292 calls)
     h_psi        :      1.08s CPU      1.08s WALL (     324 calls)
     s_psi        :      0.05s CPU      0.05s WALL (     324 calls)
     g_psi        :      0.00s CPU      0.00s WALL (     212 calls)

     Called by h_psi:
     h_psi:calbec :      0.05s CPU      0.05s WALL (     324 calls)
     vloc_psi     :      0.98s CPU      0.98s WALL (     324 calls)
     add_vuspsi   :      0.05s CPU      0.05s WALL (     324 calls)

     General routines
     calbec       :      0.06s CPU      0.06s WALL (     420 calls)
     fft          :      0.35s CPU      0.36s WALL (      67 calls)
     ffts         :      0.00s CPU      0.00s WALL (       6 calls)
     fftw         :      0.98s CPU      0.98s WALL (    2766 calls)

     Parallel routines

     PWSCF        :      2.56s CPU      2.62s WALL


   This run was terminated on:  21:32:21  10Dec2022            

=------------------------------------------------------------------------------=
   JOB DONE.
=------------------------------------------------------------------------------=
