calculator: qe
length_unit: au
nqpoint: 153    
npath: 3      
segment_nqpoint:
- 51
- 51
- 51
reciprocal_lattice:
- [  -0.09676422,  -0.09676422,   0.09676422 ] # a*
- [  -0.09676422,   0.09676422,  -0.09676422 ] # b*
- [   0.09676422,  -0.09676422,  -0.09676422 ] # c*
natom: 2      
lattice:
- [    -5.167199119007739,    -5.167199119007739,     0.000000000000000 ] # a
- [    -5.167199119007739,     0.000000000000000,    -5.167199119007739 ] # b
- [     0.000000000000000,    -5.167199119007739,    -5.167199119007739 ] # c
points:
- symbol: Si # 1
  coordinates: [  0.250000000000000,  0.250000000000000,  0.250000000000000 ]
  mass: 28.085500
- symbol: Si # 2
  coordinates: [  0.500000000000000,  0.500000000000000,  0.500000000000000 ]
  mass: 28.085500

phonon:
- q-position: [    0.5000000,    0.5000000,    0.5000000 ]
  distance:    0.0000000
  band:
  - # 1
    frequency:   -1.9459478172
  - # 2
    frequency:   -1.9459478172
  - # 3
    frequency:   10.2815809662
  - # 4
    frequency:   12.3532322778
  - # 5
    frequency:   13.7899017960
  - # 6
    frequency:   13.7899017960

- q-position: [    0.4900000,    0.4900000,    0.4900000 ]
  distance:    0.0016760
  band:
  - # 1
    frequency:   -1.9473526088
  - # 2
    frequency:   -1.9473526088
  - # 3
    frequency:   10.2581316981
  - # 4
    frequency:   12.3741082210
  - # 5
    frequency:   13.7939263199
  - # 6
    frequency:   13.7939263199

- q-position: [    0.4800000,    0.4800000,    0.4800000 ]
  distance:    0.0033520
  band:
  - # 1
    frequency:   -1.9515119694
  - # 2
    frequency:   -1.9515119694
  - # 3
    frequency:   10.1904649210
  - # 4
    frequency:   12.4340582458
  - # 5
    frequency:   13.8059708487
  - # 6
    frequency:   13.8059708487

- q-position: [    0.4700000,    0.4700000,    0.4700000 ]
  distance:    0.0050280
  band:
  - # 1
    frequency:   -1.9582636618
  - # 2
    frequency:   -1.9582636618
  - # 3
    frequency:   10.0852513781
  - # 4
    frequency:   12.5264212571
  - # 5
    frequency:   13.8259487987
  - # 6
    frequency:   13.8259487987

- q-position: [    0.4600000,    0.4600000,    0.4600000 ]
  distance:    0.0067040
  band:
  - # 1
    frequency:   -1.9673463402
  - # 2
    frequency:   -1.9673463402
  - # 3
    frequency:    9.9504053218
  - # 4
    frequency:   12.6432990183
  - # 5
    frequency:   13.8537176544
  - # 6
    frequency:   13.8537176544

- q-position: [    0.4500000,    0.4500000,    0.4500000 ]
  distance:    0.0083800
  band:
  - # 1
    frequency:   -1.9784121402
  - # 2
    frequency:   -1.9784121402
  - # 3
    frequency:    9.7930605299
  - # 4
    frequency:   12.7775800386
  - # 5
    frequency:   13.8890815683
  - # 6
    frequency:   13.8890815683

- q-position: [    0.4400000,    0.4400000,    0.4400000 ]
  distance:    0.0100560
  band:
  - # 1
    frequency:   -1.9910425162
  - # 2
    frequency:   -1.9910425162
  - # 3
    frequency:    9.6188368532
  - # 4
    frequency:   12.9236728907
  - # 5
    frequency:   13.9317948330
  - # 6
    frequency:   13.9317948330

- q-position: [    0.4300000,    0.4300000,    0.4300000 ]
  distance:    0.0117320
  band:
  - # 1
    frequency:   -2.0047659186
  - # 2
    frequency:   -2.0047659186
  - # 3
    frequency:    9.4318947119
  - # 4
    frequency:   13.0774515408
  - # 5
    frequency:   13.9815660775
  - # 6
    frequency:   13.9815660775

- q-position: [    0.4200000,    0.4200000,    0.4200000 ]
  distance:    0.0134080
  band:
  - # 1
    frequency:   -2.0190759238
  - # 2
    frequency:   -2.0190759238
  - # 3
    frequency:    9.2352493994
  - # 4
    frequency:   13.2359408331
  - # 5
    frequency:   14.0380630152
  - # 6
    frequency:   14.0380630152

- q-position: [    0.4100000,    0.4100000,    0.4100000 ]
  distance:    0.0150840
  band:
  - # 1
    frequency:   -2.0334486191
  - # 2
    frequency:   -2.0334486191
  - # 3
    frequency:    9.0310898198
  - # 4
    frequency:   13.3969975023
  - # 5
    frequency:   14.1009175644
  - # 6
    frequency:   14.1009175644

- q-position: [    0.4000000,    0.4000000,    0.4000000 ]
  distance:    0.0167601
  band:
  - # 1
    frequency:   -2.0473583381
  - # 2
    frequency:   -2.0473583381
  - # 3
    frequency:    8.8210274325
  - # 4
    frequency:   13.5590609406
  - # 5
    frequency:   14.1697311632
  - # 6
    frequency:   14.1697311632

- q-position: [    0.3900000,    0.3900000,    0.3900000 ]
  distance:    0.0184361
  band:
  - # 1
    frequency:   -2.0602911622
  - # 2
    frequency:   -2.0602911622
  - # 3
    frequency:    8.6062731145
  - # 4
    frequency:   13.7209760095
  - # 5
    frequency:   14.2440801142
  - # 6
    frequency:   14.2440801142

- q-position: [    0.3800000,    0.3800000,    0.3800000 ]
  distance:    0.0201121
  band:
  - # 1
    frequency:   -2.0717559117
  - # 2
    frequency:   -2.0717559117
  - # 3
    frequency:    8.3877582993
  - # 4
    frequency:   13.8818715376
  - # 5
    frequency:   14.3235208145
  - # 6
    frequency:   14.3235208145

- q-position: [    0.3700000,    0.3700000,    0.3700000 ]
  distance:    0.0217881
  band:
  - # 1
    frequency:   -2.0812925983
  - # 2
    frequency:   -2.0812925983
  - # 3
    frequency:    8.1662170656
  - # 4
    frequency:   14.0410778322
  - # 5
    frequency:   14.4075947518
  - # 6
    frequency:   14.4075947518

- q-position: [    0.3600000,    0.3600000,    0.3600000 ]
  distance:    0.0234641
  band:
  - # 1
    frequency:   -2.0884784915
  - # 2
    frequency:   -2.0884784915
  - # 3
    frequency:    7.9422418614
  - # 4
    frequency:   14.1980705181
  - # 5
    frequency:   14.4958331727
  - # 6
    frequency:   14.4958331727

- q-position: [    0.3500000,    0.3500000,    0.3500000 ]
  distance:    0.0251401
  band:
  - # 1
    frequency:   -2.0929320668
  - # 2
    frequency:   -2.0929320668
  - # 3
    frequency:    7.7163216277
  - # 4
    frequency:   14.3524319425
  - # 5
    frequency:   14.5877613619
  - # 6
    frequency:   14.5877613619

- q-position: [    0.3400000,    0.3400000,    0.3400000 ]
  distance:    0.0268161
  band:
  - # 1
    frequency:   -2.0943151583
  - # 2
    frequency:   -2.0943151583
  - # 3
    frequency:    7.4888681506
  - # 4
    frequency:   14.5038243175
  - # 5
    frequency:   14.6829024891
  - # 6
    frequency:   14.6829024891

- q-position: [    0.3300000,    0.3300000,    0.3300000 ]
  distance:    0.0284921
  band:
  - # 1
    frequency:   -2.0923336532
  - # 2
    frequency:   -2.0923336532
  - # 3
    frequency:    7.2602344789
  - # 4
    frequency:   14.6519707637
  - # 5
    frequency:   14.7807810092
  - # 6
    frequency:   14.7807810092

- q-position: [    0.3200000,    0.3200000,    0.3200000 ]
  distance:    0.0301681
  band:
  - # 1
    frequency:   -2.0867370499
  - # 2
    frequency:   -2.0867370499
  - # 3
    frequency:    7.0307279316
  - # 4
    frequency:   14.7966417334
  - # 5
    frequency:   14.8809256170
  - # 6
    frequency:   14.8809256170

- q-position: [    0.3100000,    0.3100000,    0.3100000 ]
  distance:    0.0318441
  band:
  - # 1
    frequency:   -2.0773171671
  - # 2
    frequency:   -2.0773171671
  - # 3
    frequency:    6.8006193715
  - # 4
    frequency:   14.9376451386
  - # 5
    frequency:   14.9828717714
  - # 6
    frequency:   14.9828717714

- q-position: [    0.3000000,    0.3000000,    0.3000000 ]
  distance:    0.0335201
  band:
  - # 1
    frequency:   -2.0639062521
  - # 2
    frequency:   -2.0639062521
  - # 3
    frequency:    6.5701498668
  - # 4
    frequency:   15.0748190645
  - # 5
    frequency:   15.0861638164
  - # 6
    frequency:   15.0861638164

- q-position: [    0.2900000,    0.2900000,    0.2900000 ]
  distance:    0.0351961
  band:
  - # 1
    frequency:   -2.0463746913
  - # 2
    frequency:   -2.0463746913
  - # 3
    frequency:    6.3395355028
  - # 4
    frequency:   15.1903567331
  - # 5
    frequency:   15.1903567331
  - # 6
    frequency:   15.2080263096

- q-position: [    0.2800000,    0.2800000,    0.2800000 ]
  distance:    0.0368721
  band:
  - # 1
    frequency:   -2.0246284862
  - # 2
    frequency:   -2.0246284862
  - # 3
    frequency:    6.1089708692
  - # 4
    frequency:   15.2950175593
  - # 5
    frequency:   15.2950175593
  - # 6
    frequency:   15.3371502295

- q-position: [    0.2700000,    0.2700000,    0.2700000 ]
  distance:    0.0385481
  band:
  - # 1
    frequency:   -1.9986066218
  - # 2
    frequency:   -1.9986066218
  - # 3
    frequency:    5.8786315880
  - # 4
    frequency:   15.3997265162
  - # 5
    frequency:   15.3997265162
  - # 6
    frequency:   15.4620915243

- q-position: [    0.2600000,    0.2600000,    0.2600000 ]
  distance:    0.0402241
  band:
  - # 1
    frequency:   -1.9682784210
  - # 2
    frequency:   -1.9682784210
  - # 3
    frequency:    5.6486761415
  - # 4
    frequency:   15.5040778819
  - # 5
    frequency:   15.5040778819
  - # 6
    frequency:   15.5827657135

- q-position: [    0.2500000,    0.2500000,    0.2500000 ]
  distance:    0.0419001
  band:
  - # 1
    frequency:   -1.9336409543
  - # 2
    frequency:   -1.9336409543
  - # 3
    frequency:    5.4192471867
  - # 4
    frequency:   15.6076806472
  - # 5
    frequency:   15.6076806472
  - # 6
    frequency:   15.6991011173

- q-position: [    0.2400000,    0.2400000,    0.2400000 ]
  distance:    0.0435761
  band:
  - # 1
    frequency:   -1.8947165527
  - # 2
    frequency:   -1.8947165527
  - # 3
    frequency:    5.1904724917
  - # 4
    frequency:   15.7101589895
  - # 5
    frequency:   15.7101589895
  - # 6
    frequency:   15.8110372147

- q-position: [    0.2300000,    0.2300000,    0.2300000 ]
  distance:    0.0452521
  band:
  - # 1
    frequency:   -1.8515504545
  - # 2
    frequency:   -1.8515504545
  - # 3
    frequency:    4.9624655952
  - # 4
    frequency:   15.8111525964
  - # 5
    frequency:   15.8111525964
  - # 6
    frequency:   15.9185232823

- q-position: [    0.2200000,    0.2200000,    0.2200000 ]
  distance:    0.0469282
  band:
  - # 1
    frequency:   -1.8042086035
  - # 2
    frequency:   -1.8042086035
  - # 3
    frequency:    4.7353262646
  - # 4
    frequency:   15.9103168649
  - # 5
    frequency:   15.9103168649
  - # 6
    frequency:   16.0215172456

- q-position: [    0.2100000,    0.2100000,    0.2100000 ]
  distance:    0.0486042
  band:
  - # 1
    frequency:   -1.7527756094
  - # 2
    frequency:   -1.7527756094
  - # 3
    frequency:    4.5091408110
  - # 4
    frequency:   16.0073230030
  - # 5
    frequency:   16.0073230030
  - # 6
    frequency:   16.1199846913

- q-position: [    0.2000000,    0.2000000,    0.2000000 ]
  distance:    0.0502802
  band:
  - # 1
    frequency:   -1.6973528696
  - # 2
    frequency:   -1.6973528696
  - # 3
    frequency:    4.2839823070
  - # 4
    frequency:   16.1018580535
  - # 5
    frequency:   16.1018580535
  - # 6
    frequency:   16.2138980020

- q-position: [    0.1900000,    0.1900000,    0.1900000 ]
  distance:    0.0519562
  band:
  - # 1
    frequency:   -1.6380568515
  - # 2
    frequency:   -1.6380568515
  - # 3
    frequency:    4.0599107424
  - # 4
    frequency:   16.1936248577
  - # 5
    frequency:   16.1936248577
  - # 6
    frequency:   16.3032355858

- q-position: [    0.1800000,    0.1800000,    0.1800000 ]
  distance:    0.0536322
  band:
  - # 1
    frequency:   -1.5750175268
  - # 2
    frequency:   -1.5750175268
  - # 3
    frequency:    3.8369731480
  - # 4
    frequency:   16.2823419751
  - # 5
    frequency:   16.2823419751
  - # 6
    frequency:   16.3879811799

- q-position: [    0.1700000,    0.1700000,    0.1700000 ]
  distance:    0.0553082
  band:
  - # 1
    frequency:   -1.5083769503
  - # 2
    frequency:   -1.5083769503
  - # 3
    frequency:    3.6152037101
  - # 4
    frequency:   16.3677435704
  - # 5
    frequency:   16.3677435704
  - # 6
    frequency:   16.4681232115

- q-position: [    0.1600000,    0.1600000,    0.1600000 ]
  distance:    0.0569842
  band:
  - # 1
    frequency:   -1.4382879729
  - # 2
    frequency:   -1.4382879729
  - # 3
    frequency:    3.3946238974
  - # 4
    frequency:   16.4495792791
  - # 5
    frequency:   16.4495792791
  - # 6
    frequency:   16.5436542067

- q-position: [    0.1500000,    0.1500000,    0.1500000 ]
  distance:    0.0586602
  band:
  - # 1
    frequency:   -1.3649130768
  - # 2
    frequency:   -1.3649130768
  - # 3
    frequency:    3.1752426144
  - # 4
    frequency:   16.5276140589
  - # 5
    frequency:   16.5276140589
  - # 6
    frequency:   16.6145702363

- q-position: [    0.1400000,    0.1400000,    0.1400000 ]
  distance:    0.0603362
  band:
  - # 1
    frequency:   -1.2884233244
  - # 2
    frequency:   -1.2884233244
  - # 3
    frequency:    2.9570563969
  - # 4
    frequency:   16.6016280343
  - # 5
    frequency:   16.6016280343
  - # 6
    frequency:   16.6808703960

- q-position: [    0.1300000,    0.1300000,    0.1300000 ]
  distance:    0.0620122
  band:
  - # 1
    frequency:   -1.2089974084
  - # 2
    frequency:   -1.2089974084
  - # 3
    frequency:    2.7400496610
  - # 4
    frequency:   16.6714163397
  - # 5
    frequency:   16.6714163397
  - # 6
    frequency:   16.7425563140

- q-position: [    0.1200000,    0.1200000,    0.1200000 ]
  distance:    0.0636882
  band:
  - # 1
    frequency:   -1.1268207927
  - # 2
    frequency:   -1.1268207927
  - # 3
    frequency:    2.5241950136
  - # 4
    frequency:   16.7367889638
  - # 5
    frequency:   16.7367889638
  - # 6
    frequency:   16.7996316860

- q-position: [    0.1100000,    0.1100000,    0.1100000 ]
  distance:    0.0653642
  band:
  - # 1
    frequency:   -1.0420849367
  - # 2
    frequency:   -1.0420849367
  - # 3
    frequency:    2.3094536336
  - # 4
    frequency:   16.7975706005
  - # 5
    frequency:   16.7975706005
  - # 6
    frequency:   16.8521018353

- q-position: [    0.1000000,    0.1000000,    0.1000000 ]
  distance:    0.0670402
  band:
  - # 1
    frequency:   -0.9549865906
  - # 2
    frequency:   -0.9549865906
  - # 3
    frequency:    2.0957757286
  - # 4
    frequency:   16.8536005056
  - # 5
    frequency:   16.8536005056
  - # 6
    frequency:   16.8999732978

- q-position: [    0.0900000,    0.0900000,    0.0900000 ]
  distance:    0.0687162
  band:
  - # 1
    frequency:   -0.8657271560
  - # 2
    frequency:   -0.8657271560
  - # 3
    frequency:    1.8831010702
  - # 4
    frequency:   16.9047323647
  - # 5
    frequency:   16.9047323647
  - # 6
    frequency:   16.9432534324

- q-position: [    0.0800000,    0.0800000,    0.0800000 ]
  distance:    0.0703922
  band:
  - # 1
    frequency:   -0.7745121025
  - # 2
    frequency:   -0.7745121025
  - # 3
    frequency:    1.6713596111
  - # 4
    frequency:   16.9508341698
  - # 5
    frequency:   16.9508341698
  - # 6
    frequency:   16.9819500579

- q-position: [    0.0700000,    0.0700000,    0.0700000 ]
  distance:    0.0720682
  band:
  - # 1
    frequency:   -0.6815504339
  - # 2
    frequency:   -0.6815504339
  - # 3
    frequency:    1.4604721834
  - # 4
    frequency:   16.9917881075
  - # 5
    frequency:   16.9917881075
  - # 6
    frequency:   17.0160711173

- q-position: [    0.0600000,    0.0600000,    0.0600000 ]
  distance:    0.0737442
  band:
  - # 1
    frequency:   -0.5870541961
  - # 2
    frequency:   -0.5870541961
  - # 3
    frequency:    1.2503512755
  - # 4
    frequency:   17.0274904595
  - # 5
    frequency:   17.0274904595
  - # 6
    frequency:   17.0456243717

- q-position: [    0.0500000,    0.0500000,    0.0500000 ]
  distance:    0.0754202
  band:
  - # 1
    frequency:   -0.4912380229
  - # 2
    frequency:   -0.4912380229
  - # 3
    frequency:    1.0409018868
  - # 4
    frequency:   17.0578515139
  - # 5
    frequency:   17.0578515139
  - # 6
    frequency:   17.0706171243

- q-position: [    0.0400000,    0.0400000,    0.0400000 ]
  distance:    0.0770963
  band:
  - # 1
    frequency:   -0.3943187115
  - # 2
    frequency:   -0.3943187115
  - # 3
    frequency:    0.8320224513
  - # 4
    frequency:   17.0827954887
  - # 5
    frequency:   17.0827954887
  - # 6
    frequency:   17.0910559777

- q-position: [    0.0300000,    0.0300000,    0.0300000 ]
  distance:    0.0787723
  band:
  - # 1
    frequency:   -0.2965148245
  - # 2
    frequency:   -0.2965148245
  - # 3
    frequency:    0.6236058267
  - # 4
    frequency:   17.1022604680
  - # 5
    frequency:   17.1022604680
  - # 6
    frequency:   17.1069466249

- q-position: [    0.0200000,    0.0200000,    0.0200000 ]
  distance:    0.0804483
  band:
  - # 1
    frequency:   -0.1980463124
  - # 2
    frequency:   -0.1980463124
  - # 3
    frequency:    0.4155403391
  - # 4
    frequency:   17.1161983489
  - # 5
    frequency:   17.1161983489
  - # 6
    frequency:   17.1182936762

- q-position: [    0.0100000,    0.0100000,    0.0100000 ]
  distance:    0.0821243
  band:
  - # 1
    frequency:   -0.0991341524
  - # 2
    frequency:   -0.0991341524
  - # 3
    frequency:    0.2077108732
  - # 4
    frequency:   17.1245748015
  - # 5
    frequency:   17.1245748015
  - # 6
    frequency:   17.1251005229

- q-position: [    0.0000000,    0.0000000,    0.0000000 ]
  distance:    0.0838003
  band:
  - # 1
    frequency:   -0.0000002125
  - # 2
    frequency:   -0.0000001733
  - # 3
    frequency:    0.0000001195
  - # 4
    frequency:   17.1273692391
  - # 5
    frequency:   17.1273692391
  - # 6
    frequency:   17.1273692391

- q-position: [    0.0000000,    0.0000000,    0.0000000 ]
  distance:    0.0838003
  band:
  - # 1
    frequency:   -0.0000002125
  - # 2
    frequency:   -0.0000001733
  - # 3
    frequency:    0.0000001195
  - # 4
    frequency:   17.1273692391
  - # 5
    frequency:   17.1273692391
  - # 6
    frequency:   17.1273692391

- q-position: [    0.0100000,    0.0100000,    0.0000000 ]
  distance:    0.0857356
  band:
  - # 1
    frequency:   -0.0914801642
  - # 2
    frequency:   -0.0914801642
  - # 3
    frequency:    0.2190532654
  - # 4
    frequency:   17.1235763077
  - # 5
    frequency:   17.1235763077
  - # 6
    frequency:   17.1244771922

- q-position: [    0.0200000,    0.0200000,    0.0000000 ]
  distance:    0.0876708
  band:
  - # 1
    frequency:   -0.1833750652
  - # 2
    frequency:   -0.1833750652
  - # 3
    frequency:    0.4378992273
  - # 4
    frequency:   17.1122011874
  - # 5
    frequency:   17.1122011874
  - # 6
    frequency:   17.1157976485

- q-position: [    0.0300000,    0.0300000,    0.0000000 ]
  distance:    0.0896061
  band:
  - # 1
    frequency:   -0.2760909529
  - # 2
    frequency:   -0.2760909529
  - # 3
    frequency:    0.6563330819
  - # 4
    frequency:   17.0932550043
  - # 5
    frequency:   17.0932550043
  - # 6
    frequency:   17.1013204793

- q-position: [    0.0400000,    0.0400000,    0.0000000 ]
  distance:    0.0915414
  band:
  - # 1
    frequency:   -0.3700174239
  - # 2
    frequency:   -0.3700174239
  - # 3
    frequency:    0.8741550037
  - # 4
    frequency:   17.0667566510
  - # 5
    frequency:   17.0667566510
  - # 6
    frequency:   17.0810290735

- q-position: [    0.0500000,    0.0500000,    0.0000000 ]
  distance:    0.0934767
  band:
  - # 1
    frequency:   -0.4655198691
  - # 2
    frequency:   -0.4655198691
  - # 3
    frequency:    1.0911725836
  - # 4
    frequency:   17.0327333057
  - # 5
    frequency:   17.0327333057
  - # 6
    frequency:   17.0549007369

- q-position: [    0.0600000,    0.0600000,    0.0000000 ]
  distance:    0.0954120
  band:
  - # 1
    frequency:   -0.5629327788
  - # 2
    frequency:   -0.5629327788
  - # 3
    frequency:    1.3072032056
  - # 4
    frequency:   16.9912211518
  - # 5
    frequency:   16.9912211518
  - # 6
    frequency:   17.0229072457

- q-position: [    0.0700000,    0.0700000,    0.0000000 ]
  distance:    0.0973473
  band:
  - # 1
    frequency:   -0.6625540825
  - # 2
    frequency:   -0.6625540825
  - # 3
    frequency:    1.5220763394
  - # 4
    frequency:   16.9422662905
  - # 5
    frequency:   16.9422662905
  - # 6
    frequency:   16.9850155437

- q-position: [    0.0800000,    0.0800000,    0.0000000 ]
  distance:    0.0992825
  band:
  - # 1
    frequency:   -0.7646406271
  - # 2
    frequency:   -0.7646406271
  - # 3
    frequency:    1.7356357301
  - # 4
    frequency:   16.8859258357
  - # 5
    frequency:   16.8859258357
  - # 6
    frequency:   16.9411885756

- q-position: [    0.0900000,    0.0900000,    0.0000000 ]
  distance:    0.1012178
  band:
  - # 1
    frequency:   -0.8694048247
  - # 2
    frequency:   -0.8694048247
  - # 3
    frequency:    1.9477414608
  - # 4
    frequency:   16.8222691811
  - # 5
    frequency:   16.8222691811
  - # 6
    frequency:   16.8913862448

- q-position: [    0.1000000,    0.1000000,    0.0000000 ]
  distance:    0.1031531
  band:
  - # 1
    frequency:   -0.9770124365
  - # 2
    frequency:   -0.9770124365
  - # 3
    frequency:    2.1582718669
  - # 4
    frequency:   16.7513794250
  - # 5
    frequency:   16.7513794250
  - # 6
    frequency:   16.8355664821

- q-position: [    0.1100000,    0.1100000,    0.0000000 ]
  distance:    0.1050884
  band:
  - # 1
    frequency:   -1.0875814094
  - # 2
    frequency:   -1.0875814094
  - # 3
    frequency:    2.3671252798
  - # 4
    frequency:   16.6733549372
  - # 5
    frequency:   16.6733549372
  - # 6
    frequency:   16.7736864129

- q-position: [    0.1200000,    0.1200000,    0.0000000 ]
  distance:    0.1070237
  band:
  - # 1
    frequency:   -1.2011816444
  - # 2
    frequency:   -1.2011816444
  - # 3
    frequency:    2.5742215764
  - # 4
    frequency:   16.5883110516
  - # 5
    frequency:   16.5883110516
  - # 6
    frequency:   16.7057036058

- q-position: [    0.1300000,    0.1300000,    0.0000000 ]
  distance:    0.1089590
  band:
  - # 1
    frequency:   -1.3178355562
  - # 2
    frequency:   -1.3178355562
  - # 3
    frequency:    2.7795035115
  - # 4
    frequency:   16.4963818638
  - # 5
    frequency:   16.4963818638
  - # 6
    frequency:   16.6315773883

- q-position: [    0.1400000,    0.1400000,    0.0000000 ]
  distance:    0.1108943
  band:
  - # 1
    frequency:   -1.4375192760
  - # 2
    frequency:   -1.4375192760
  - # 3
    frequency:    2.9829378109
  - # 4
    frequency:   16.3977221137
  - # 5
    frequency:   16.3977221137
  - # 6
    frequency:   16.5512702105

- q-position: [    0.1500000,    0.1500000,    0.0000000 ]
  distance:    0.1128295
  band:
  - # 1
    frequency:   -1.5601643531
  - # 2
    frequency:   -1.5601643531
  - # 3
    frequency:    3.1845160029
  - # 4
    frequency:   16.2925091286
  - # 5
    frequency:   16.2925091286
  - # 6
    frequency:   16.4647490423

- q-position: [    0.1600000,    0.1600000,    0.0000000 ]
  distance:    0.1147648
  band:
  - # 1
    frequency:   -1.6856598206
  - # 2
    frequency:   -1.6856598206
  - # 3
    frequency:    3.3842549667
  - # 4
    frequency:   16.1809448025
  - # 5
    frequency:   16.1809448025
  - # 6
    frequency:   16.3719867843

- q-position: [    0.1700000,    0.1700000,    0.0000000 ]
  distance:    0.1167001
  band:
  - # 1
    frequency:   -1.8138545085
  - # 2
    frequency:   -1.8138545085
  - # 3
    frequency:    3.5821971776
  - # 4
    frequency:   16.0632575836
  - # 5
    frequency:   16.0632575836
  - # 6
    frequency:   16.2729636759

- q-position: [    0.1800000,    0.1800000,    0.0000000 ]
  distance:    0.1186354
  band:
  - # 1
    frequency:   -1.9445595025
  - # 2
    frequency:   -1.9445595025
  - # 3
    frequency:    3.7784106324
  - # 4
    frequency:   15.9397044393
  - # 5
    frequency:   15.9397044393
  - # 6
    frequency:   16.1676686837

- q-position: [    0.1900000,    0.1900000,    0.0000000 ]
  distance:    0.1205707
  band:
  - # 1
    frequency:   -2.0775506677
  - # 2
    frequency:   -2.0775506677
  - # 3
    frequency:    3.9729884392
  - # 4
    frequency:   15.8105727667
  - # 5
    frequency:   15.8105727667
  - # 6
    frequency:   16.0561008523

- q-position: [    0.2000000,    0.2000000,    0.0000000 ]
  distance:    0.1225060
  band:
  - # 1
    frequency:   -2.2125711710
  - # 2
    frequency:   -2.2125711710
  - # 3
    frequency:    4.1660480604
  - # 4
    frequency:   15.6761822125
  - # 5
    frequency:   15.6761822125
  - # 6
    frequency:   15.9382706019

- q-position: [    0.2100000,    0.2100000,    0.0000000 ]
  distance:    0.1244412
  band:
  - # 1
    frequency:   -2.3493339559
  - # 2
    frequency:   -2.3493339559
  - # 3
    frequency:    4.3577302022
  - # 4
    frequency:   15.5368863639
  - # 5
    frequency:   15.5368863639
  - # 6
    frequency:   15.8142009575

- q-position: [    0.2200000,    0.2200000,    0.0000000 ]
  distance:    0.1263765
  band:
  - # 1
    frequency:   -2.4875241327
  - # 2
    frequency:   -2.4875241327
  - # 3
    frequency:    4.5481973483
  - # 4
    frequency:   15.3930742672
  - # 5
    frequency:   15.3930742672
  - # 6
    frequency:   15.6839286930

- q-position: [    0.2300000,    0.2300000,    0.0000000 ]
  distance:    0.1283118
  band:
  - # 1
    frequency:   -2.6268012639
  - # 2
    frequency:   -2.6268012639
  - # 3
    frequency:    4.7376319425
  - # 4
    frequency:   15.2451717309
  - # 5
    frequency:   15.2451717309
  - # 6
    frequency:   15.5475053789

- q-position: [    0.2400000,    0.2400000,    0.0000000 ]
  distance:    0.1302471
  band:
  - # 1
    frequency:   -2.7668015342
  - # 2
    frequency:   -2.7668015342
  - # 3
    frequency:    4.9262342301
  - # 4
    frequency:   15.0936423612
  - # 5
    frequency:   15.0936423612
  - # 6
    frequency:   15.4049983181

- q-position: [    0.2500000,    0.2500000,    0.0000000 ]
  distance:    0.1321824
  band:
  - # 1
    frequency:   -2.9071398022
  - # 2
    frequency:   -2.9071398022
  - # 3
    frequency:    5.1142197759
  - # 4
    frequency:   14.9389882805
  - # 5
    frequency:   14.9389882805
  - # 6
    frequency:   15.2564913602

- q-position: [    0.2600000,    0.2600000,    0.0000000 ]
  distance:    0.1341177
  band:
  - # 1
    frequency:   -3.0474115441
  - # 2
    frequency:   -3.0474115441
  - # 3
    frequency:    5.3018166850
  - # 4
    frequency:   14.7817504716
  - # 5
    frequency:   14.7817504716
  - # 6
    frequency:   15.1020855811

- q-position: [    0.2700000,    0.2700000,    0.0000000 ]
  distance:    0.1360530
  band:
  - # 1
    frequency:   -3.1871947035
  - # 2
    frequency:   -3.1871947035
  - # 3
    frequency:    5.4892625585
  - # 4
    frequency:   14.6225086914
  - # 5
    frequency:   14.6225086914
  - # 6
    frequency:   14.9418998210

- q-position: [    0.2800000,    0.2800000,    0.0000000 ]
  distance:    0.1379882
  band:
  - # 1
    frequency:   -3.3260514732
  - # 2
    frequency:   -3.3260514732
  - # 3
    frequency:    5.6768012248
  - # 4
    frequency:   14.4618808953
  - # 5
    frequency:   14.4618808953
  - # 6
    frequency:   14.7760710694

- q-position: [    0.2900000,    0.2900000,    0.0000000 ]
  distance:    0.1399235
  band:
  - # 1
    frequency:   -3.4635300381
  - # 2
    frequency:   -3.4635300381
  - # 3
    frequency:    5.8646792944
  - # 4
    frequency:   14.3005221131
  - # 5
    frequency:   14.3005221131
  - # 6
    frequency:   14.6047546919

- q-position: [    0.3000000,    0.3000000,    0.0000000 ]
  distance:    0.1418588
  band:
  - # 1
    frequency:   -3.5991663183
  - # 2
    frequency:   -3.5991663183
  - # 3
    frequency:    6.0531425915
  - # 4
    frequency:   14.1391227220
  - # 5
    frequency:   14.1391227220
  - # 6
    frequency:   14.4281244910

- q-position: [    0.3100000,    0.3100000,    0.0000000 ]
  distance:    0.1437941
  band:
  - # 1
    frequency:   -3.7324857551
  - # 2
    frequency:   -3.7324857551
  - # 3
    frequency:    6.2424325211
  - # 4
    frequency:   13.9784060638
  - # 5
    frequency:   13.9784060638
  - # 6
    frequency:   14.2463725965

- q-position: [    0.3200000,    0.3200000,    0.0000000 ]
  distance:    0.1457294
  band:
  - # 1
    frequency:   -3.8630051876
  - # 2
    frequency:   -3.8630051876
  - # 3
    frequency:    6.4327824345
  - # 4
    frequency:   13.8191253619
  - # 5
    frequency:   13.8191253619
  - # 6
    frequency:   14.0597091814

- q-position: [    0.3300000,    0.3300000,    0.0000000 ]
  distance:    0.1476647
  band:
  - # 1
    frequency:   -3.9902348700
  - # 2
    frequency:   -3.9902348700
  - # 3
    frequency:    6.6244140572
  - # 4
    frequency:   13.6620599044
  - # 5
    frequency:   13.6620599044
  - # 6
    frequency:   13.8683620000

- q-position: [    0.3400000,    0.3400000,    0.0000000 ]
  distance:    0.1495999
  band:
  - # 1
    frequency:   -4.1136806790
  - # 2
    frequency:   -4.1136806790
  - # 3
    frequency:    6.8175340433
  - # 4
    frequency:   13.5080104721
  - # 5
    frequency:   13.5080104721
  - # 6
    frequency:   13.6725757459

- q-position: [    0.3500000,    0.3500000,    0.0000000 ]
  distance:    0.1515352
  band:
  - # 1
    frequency:   -4.2328465596
  - # 2
    frequency:   -4.2328465596
  - # 3
    frequency:    7.0123307188
  - # 4
    frequency:   13.3577940072
  - # 5
    frequency:   13.3577940072
  - # 6
    frequency:   13.4726112308

- q-position: [    0.3600000,    0.3600000,    0.0000000 ]
  distance:    0.1534705
  band:
  - # 1
    frequency:   -4.3472372476
  - # 2
    frequency:   -4.3472372476
  - # 3
    frequency:    7.2089710721
  - # 4
    frequency:   13.2122375384
  - # 5
    frequency:   13.2122375384
  - # 6
    frequency:   13.2687443829

- q-position: [    0.3700000,    0.3700000,    0.0000000 ]
  distance:    0.1554058
  band:
  - # 1
    frequency:   -4.4563613006
  - # 2
    frequency:   -4.4563613006
  - # 3
    frequency:    7.4075980452
  - # 4
    frequency:   13.0612650664
  - # 5
    frequency:   13.0721713987
  - # 6
    frequency:   13.0721713987

- q-position: [    0.3800000,    0.3800000,    0.0000000 ]
  distance:    0.1573411
  band:
  - # 1