16   
1    

1    
 -0.0141421356237310  -0.0141421356237310   0.0000000000000000
   0.0033031500    0.0033031500    0.0000500306
  -0.0000156600   -0.0000156600   -0.0000273994
   0.0001738700    0.0005417100   -0.0001864794
   0.0005569400    0.0001800100    0.0002190806
   0.0005417100    0.0001738700   -0.0001864794
   0.0001800100    0.0005569400    0.0002190806
   0.0003808600    0.0003808600   -0.0000005994
  -0.0002148700   -0.0002148700   -0.0000285494
  -0.0018261900   -0.0018261900   -0.0012182794
  -0.0017349300   -0.0017349300    0.0010710006
  -0.0006629600   -0.0006527600    0.0000462106
   0.0001280900    0.0001700800    0.0000276806
  -0.0006527600   -0.0006629600    0.0000462106
   0.0001700800    0.0001280900    0.0000276806
  -0.0001478100   -0.0001478100    0.0002853806
  -0.0001795300   -0.0001795300   -0.0003445694
