
     Program PWSCF v.7.1 starts on 27Dec2022 at  3:55:37 

     This program is part of the open-source Quantum ESPRESSO suite
     for quantum simulation of materials; please cite
         "P. Giannozzi et al., J. Phys.:Condens. Matter 21 395502 (2009);
         "P. Giannozzi et al., J. Phys.:Condens. Matter 29 465901 (2017);
         "P. Giannozzi et al., J. Chem. Phys. 152 154105 (2020);
          URL http://www.quantum-espresso.org", 
     in publications or presentations arising from this work. More details at
     http://www.quantum-espresso.org/quote

     Parallel version (MPI), running on     1 processors

     MPI processes distributed on     1 nodes
     9246 MiB available memory on the printing compute node when the environment starts
 
     Waiting for input...
     Reading input from standard input

     Current dimensions of program PWSCF are:
     Max number of different atomic species (ntypx) = 10
     Max number of k-points (npk) =  40000
     Max angular momentum in pseudopotentials (lmaxx) =  4

     gamma-point specific algorithms are used
     Found identity + ( -0.5000  0.0000  0.0000) symmetry
     This is a supercell, fractional translations are disabled
     Message from routine setup:
     using ibrav=0 with symmetry is DISCOURAGED, use correct ibrav instead
 
     Subspace diagonalization in iterative solution of the eigenvalue problem:
     a serial algorithm will be used

 
     G-vector sticks info
     --------------------
     sticks:   dense  smooth     PW     G-vecs:    dense   smooth      PW
     Sum        3535    3535    877               138503   138503   17261
 
     Using Slab Decomposition
 


     bravais-lattice index     =            0
     lattice parameter (alat)  =      14.6150  a.u.
     unit-cell volume          =    2207.4231 (a.u.)^3
     number of atoms/cell      =           16
     number of atomic types    =            1
     number of electrons       =        64.00
     number of Kohn-Sham states=           32
     kinetic-energy cutoff     =      60.0000  Ry
     charge density cutoff     =     240.0000  Ry
     scf convergence threshold =      1.0E-06
     mixing beta               =       0.7000
     number of iterations used =            8  plain     mixing
     Exchange-correlation= PBESOL
                           (   1   4  10   8   0   0   0)

     celldm(1)=  14.615046  celldm(2)=   0.000000  celldm(3)=   0.000000
     celldm(4)=   0.000000  celldm(5)=   0.000000  celldm(6)=   0.000000

     crystal axes: (cart. coord. in units of alat)
               a(1) = (  -0.707107  -0.707107   0.000000 )  
               a(2) = (  -0.707107   0.000000  -0.707107 )  
               a(3) = (   0.000000  -0.707107  -0.707107 )  

     reciprocal axes: (cart. coord. in units 2 pi/alat)
               b(1) = ( -0.707107 -0.707107  0.707107 )  
               b(2) = ( -0.707107  0.707107 -0.707107 )  
               b(3) = (  0.707107 -0.707107 -0.707107 )  


     PseudoPot. # 1 for Si read from file:
     ../../pseudo/Si.pbesol-n-rrkjus_psl.1.0.0.UPF
     MD5 check sum: c4212819de858c94c3a1644338846ac9
     Pseudo is Ultrasoft + core correction, Zval =  4.0
     Generated using "atomic" code by A. Dal Corso  v.6.0 svn rev. 13079
     Using radial grid of 1141 points,  6 beta functions with: 
                l(1) =   0
                l(2) =   0
                l(3) =   1
                l(4) =   1
                l(5) =   2
                l(6) =   2
     Q(r) pseudized with 0 coefficients 


     atomic species   valence    mass     pseudopotential
        Si             4.00    28.08550     Si( 1.00)

     24 Sym. Ops. (no inversion) found



   Cartesian axes

     site n.     atom                  positions (alat units)
         1           Si  tau(   1) = (  -0.1767767  -0.1767767  -0.1767767  )
         2           Si  tau(   2) = (  -0.5303301  -0.5303301  -0.1767767  )
         3           Si  tau(   3) = (  -0.5303301  -0.1767767  -0.5303301  )
         4           Si  tau(   4) = (  -0.8838835  -0.5303301  -0.5303301  )
         5           Si  tau(   5) = (  -0.1767767  -0.5303301  -0.5303301  )
         6           Si  tau(   6) = (  -0.5303301  -0.8838835  -0.5303301  )
         7           Si  tau(   7) = (  -0.5303301  -0.5303301  -0.8838835  )
         8           Si  tau(   8) = (  -0.8838835  -0.8838835  -0.8838835  )
         9           Si  tau(   9) = (  -0.3535534  -0.3535534  -0.3535534  )
        10           Si  tau(  10) = (  -0.7071068  -0.7071068  -0.3535534  )
        11           Si  tau(  11) = (  -0.7071068  -0.3535534  -0.7071068  )
        12           Si  tau(  12) = (  -1.0606602  -0.7071068  -0.7071068  )
        13           Si  tau(  13) = (  -0.3535534  -0.7071068  -0.7071068  )
        14           Si  tau(  14) = (  -0.7071068  -1.0606602  -0.7071068  )
        15           Si  tau(  15) = (  -0.7071068  -0.7071068  -1.0606602  )
        16           Si  tau(  16) = (  -1.0606602  -1.0606602  -1.0606602  )

     number of k points=     1
                       cart. coord. in units 2pi/alat
        k(    1) = (   0.0000000   0.0000000   0.0000000), wk =   2.0000000

     Dense  grid:    69252 G-vectors     FFT dimensions: (  75,  75,  75)

     Estimated max dynamical RAM per process >     347.05 MB

     Initial potential from superposition of free atoms

     starting charge      63.9914, renormalised to      64.0000
     Starting wfcs are   64 randomized atomic wfcs

     total cpu time spent up to now is        1.4 secs

     Self-consistent Calculation

     iteration #  1     ecut=    60.00 Ry     beta= 0.70
     Davidson diagonalization with overlap
     ethr =  1.00E-02,  avg # of iterations =  2.0

     total cpu time spent up to now is        2.9 secs

     total energy              =    -179.84548199 Ry
     estimated scf accuracy    <       0.74164062 Ry

     iteration #  2     ecut=    60.00 Ry     beta= 0.70
     Davidson diagonalization with overlap
     ethr =  1.16E-03,  avg # of iterations =  2.0

     total cpu time spent up to now is        4.3 secs

     total energy              =    -179.88768368 Ry
     estimated scf accuracy    <       0.04356224 Ry

     iteration #  3     ecut=    60.00 Ry     beta= 0.70
     Davidson diagonalization with overlap
     ethr =  6.81E-05,  avg # of iterations =  4.0

     total cpu time spent up to now is        6.0 secs

     total energy              =    -179.90251260 Ry
     estimated scf accuracy    <       0.00211079 Ry

     iteration #  4     ecut=    60.00 Ry     beta= 0.70
     Davidson diagonalization with overlap
     ethr =  3.30E-06,  avg # of iterations =  3.0

     total cpu time spent up to now is        7.7 secs

     total energy              =    -179.90294038 Ry
     estimated scf accuracy    <       0.00111752 Ry

     iteration #  5     ecut=    60.00 Ry     beta= 0.70
     Davidson diagonalization with overlap
     ethr =  1.75E-06,  avg # of iterations =  2.0

     total cpu time spent up to now is        9.1 secs

     total energy              =    -179.90299890 Ry
     estimated scf accuracy    <       0.00005959 Ry

     iteration #  6     ecut=    60.00 Ry     beta= 0.70
     Davidson diagonalization with overlap
     ethr =  9.31E-08,  avg # of iterations = 11.0

     total cpu time spent up to now is       11.3 secs

     total energy              =    -179.90305322 Ry
     estimated scf accuracy    <       0.00001596 Ry

     iteration #  7     ecut=    60.00 Ry     beta= 0.70
     Davidson diagonalization with overlap
     ethr =  2.49E-08,  avg # of iterations =  8.0

     total cpu time spent up to now is       12.8 secs

     total energy              =    -179.90305496 Ry
     estimated scf accuracy    <       0.00000874 Ry

     iteration #  8     ecut=    60.00 Ry     beta= 0.70
     Davidson diagonalization with overlap
     ethr =  1.37E-08,  avg # of iterations =  2.0

     total cpu time spent up to now is       14.2 secs

     total energy              =    -179.90305293 Ry
     estimated scf accuracy    <       0.00000614 Ry

     iteration #  9     ecut=    60.00 Ry     beta= 0.70
     Davidson diagonalization with overlap
     ethr =  9.60E-09,  avg # of iterations =  8.0

     total cpu time spent up to now is       16.0 secs

     total energy              =    -179.90305500 Ry
     estimated scf accuracy    <       0.00000145 Ry

     iteration # 10     ecut=    60.00 Ry     beta= 0.70
     Davidson diagonalization with overlap
     ethr =  2.26E-09,  avg # of iterations =  7.0

     total cpu time spent up to now is       17.7 secs

     End of self-consistent calculation

          k = 0.0000 0.0000 0.0000 (  8631 PWs)   bands (ev):

    -5.6713  -3.3511  -3.3509  -3.3507  -3.3507  -1.5621  -1.5621  -1.5620
    -1.5619  -1.5618  -1.5618  -0.7590  -0.7587  -0.7586  -0.7582   3.3496
     3.3496   3.3497   3.3498   3.3498   3.3499   5.0244   5.0244   5.0245
     5.0247   5.0247   5.0247   5.0249   5.0250   6.2420   6.2420   6.2421

     highest occupied level (ev):     6.2421

!    total energy              =    -179.90305471 Ry
     estimated scf accuracy    <       0.00000091 Ry

     The total energy is the sum of the following terms:
     one-electron contribution =      40.93744741 Ry
     hartree contribution      =      10.11491643 Ry
     xc contribution           =     -97.51559287 Ry
     ewald contribution        =    -133.43982568 Ry

     convergence has been achieved in  10 iterations

     Forces acting on atoms (cartesian axes, Ry/au):

     atom    1 type  1   force =    -0.00000231   -0.00000231   -0.00000231
     atom    2 type  1   force =     0.00000231    0.00000231   -0.00000231
     atom    3 type  1   force =     0.00000231   -0.00000231    0.00000231
     atom    4 type  1   force =     0.00002987   -0.00002987   -0.00002987
     atom    5 type  1   force =    -0.00000231    0.00000231    0.00000231
     atom    6 type  1   force =    -0.00002987    0.00002987   -0.00002987
     atom    7 type  1   force =    -0.00002987   -0.00002987    0.00002987
     atom    8 type  1   force =     0.00002987    0.00002987    0.00002987
     atom    9 type  1   force =     0.00000000    0.00000000    0.00000000
     atom   10 type  1   force =    -0.00000000    0.00000000   -0.00001790
     atom   11 type  1   force =     0.00000000   -0.00001790   -0.00000000
     atom   12 type  1   force =     0.00001790    0.00000000    0.00000000
     atom   13 type  1   force =    -0.00001790    0.00000000    0.00000000
     atom   14 type  1   force =    -0.00000000    0.00001790    0.00000000
     atom   15 type  1   force =    -0.00000000    0.00000000    0.00001790
     atom   16 type  1   force =     0.00000000    0.00000000   -0.00000000
     The non-local contrib.  to forces
     atom    1 type  1   force =    -0.00000917   -0.00000917   -0.00000917
     atom    2 type  1   force =     0.00000917    0.00000917   -0.00000917
     atom    3 type  1   force =     0.00000917   -0.00000917    0.00000917
     atom    4 type  1   force =    -0.00003283    0.00003283    0.00003283
     atom    5 type  1   force =    -0.00000917    0.00000917    0.00000917
     atom    6 type  1   force =     0.00003283   -0.00003283    0.00003283
     atom    7 type  1   force =     0.00003283    0.00003283   -0.00003283
     atom    8 type  1   force =    -0.00003283   -0.00003283   -0.00003283
     atom    9 type  1   force =     0.00000000   -0.00000000   -0.00000000
     atom   10 type  1   force =    -0.00000000    0.00000000    0.00001055
     atom   11 type  1   force =     0.00000000    0.00001055    0.00000000
     atom   12 type  1   force =    -0.00001055   -0.00000000   -0.00000000
     atom   13 type  1   force =     0.00001055    0.00000000   -0.00000000
     atom   14 type  1   force =     0.00000000   -0.00001055   -0.00000000
     atom   15 type  1   force =     0.00000000   -0.00000000   -0.00001055
     atom   16 type  1   force =    -0.00000000    0.00000000    0.00000000
     The ionic contribution  to forces
     atom    1 type  1   force =     0.00000000    0.00000000    0.00000000
     atom    2 type  1   force =     0.00000000    0.00000000    0.00000000
     atom    3 type  1   force =    -0.00000000   -0.00000000   -0.00000000
     atom    4 type  1   force =     0.00000000    0.00000000   -0.00000000
     atom    5 type  1   force =    -0.00000000   -0.00000000   -0.00000000
     atom    6 type  1   force =     0.00000000    0.00000000    0.00000000
     atom    7 type  1   force =    -0.00000000   -0.00000000    0.00000000
     atom    8 type  1   force =     0.00000000    0.00000000    0.00000000
     atom    9 type  1   force =     0.00000000    0.00000000    0.00000000
     atom   10 type  1   force =     0.00000000    0.00000000    0.00000000
     atom   11 type  1   force =     0.00000000    0.00000000    0.00000000
     atom   12 type  1   force =    -0.00000000   -0.00000000    0.00000000
     atom   13 type  1   force =     0.00000000    0.00000000    0.00000000
     atom   14 type  1   force =    -0.00000000   -0.00000000    0.00000000
     atom   15 type  1   force =     0.00000000    0.00000000   -0.00000000
     atom   16 type  1   force =    -0.00000000   -0.00000000   -0.00000000
     The local contribution  to forces
     atom    1 type  1   force =     0.00020319   -0.00045651    0.00009256
     atom    2 type  1   force =    -0.00010135    0.00033690    0.00010233
     atom    3 type  1   force =    -0.00032962   -0.00013023   -0.00002552
     atom    4 type  1   force =     0.00034140    0.00023236   -0.00038059
     atom    5 type  1   force =     0.00037051    0.00009580   -0.00001304
     atom    6 type  1   force =    -0.00018802   -0.00026861   -0.00013444
     atom    7 type  1   force =    -0.00072428    0.00036194    0.00021422
     atom    8 type  1   force =     0.00044545   -0.00005846    0.00009455
     atom    9 type  1   force =    -0.00000686    0.00015625    0.00034059
     atom   10 type  1   force =     0.00003057   -0.00027483   -0.00005340
     atom   11 type  1   force =    -0.00011627    0.00006297   -0.00038133
     atom   12 type  1   force =     0.00006451   -0.00005764   -0.00027084
     atom   13 type  1   force =    -0.00004459   -0.00039318    0.00000835
     atom   14 type  1   force =     0.00019949    0.00018224   -0.00020456
     atom   15 type  1   force =    -0.00005665   -0.00015759    0.00034523
     atom   16 type  1   force =    -0.00009980    0.00046520    0.00000634
     The core correction contribution to forces
     atom    1 type  1   force =     0.00000035   -0.00003231   -0.00001031
     atom    2 type  1   force =     0.00000103    0.00002707   -0.00000565
     atom    3 type  1   force =    -0.00000674   -0.00001250    0.00000463
     atom    4 type  1   force =     0.00002434    0.00000614   -0.00002758
     atom    5 type  1   force =     0.00001474    0.00001469    0.00000717
     atom    6 type  1   force =    -0.00002129   -0.00001172   -0.00001668
     atom    7 type  1   force =    -0.00004933    0.00001798    0.00001945
     atom    8 type  1   force =     0.00003699    0.00000342    0.00001938
     atom    9 type  1   force =    -0.00000494    0.00001147    0.00001283
     atom   10 type  1   force =     0.00000033   -0.00001432   -0.00001171
     atom   11 type  1   force =    -0.00000445    0.00000394   -0.00002163
     atom   12 type  1   force =     0.00000026   -0.00000571   -0.00001612
     atom   13 type  1   force =    -0.00000798   -0.00002099   -0.00000442
     atom   14 type  1   force =     0.00001239    0.00000794   -0.00000872
     atom   15 type  1   force =     0.00000618   -0.00000699    0.00002421
     atom   16 type  1   force =    -0.00000579    0.00002865    0.00000466
     The Hubbard contrib.    to forces
     atom    1 type  1   force =     0.00000000    0.00000000    0.00000000
     atom    2 type  1   force =     0.00000000    0.00000000    0.00000000
     atom    3 type  1   force =     0.00000000    0.00000000    0.00000000
     atom    4 type  1   force =     0.00000000    0.00000000    0.00000000
     atom    5 type  1   force =     0.00000000    0.00000000    0.00000000
     atom    6 type  1   force =     0.00000000    0.00000000    0.00000000
     atom    7 type  1   force =     0.00000000    0.00000000    0.00000000
     atom    8 type  1   force =     0.00000000    0.00000000    0.00000000
     atom    9 type  1   force =     0.00000000    0.00000000    0.00000000
     atom   10 type  1   force =     0.00000000    0.00000000    0.00000000
     atom   11 type  1   force =     0.00000000    0.00000000    0.00000000
     atom   12 type  1   force =     0.00000000    0.00000000    0.00000000
     atom   13 type  1   force =     0.00000000    0.00000000    0.00000000
     atom   14 type  1   force =     0.00000000    0.00000000    0.00000000
     atom   15 type  1   force =     0.00000000    0.00000000    0.00000000
     atom   16 type  1   force =     0.00000000    0.00000000    0.00000000
     The SCF correction term to forces
     atom    1 type  1   force =    -0.00012474    0.00027661   -0.00009045
     atom    2 type  1   force =     0.00002794   -0.00019297   -0.00007159
     atom    3 type  1   force =     0.00020164    0.00010699    0.00000627
     atom    4 type  1   force =    -0.00021072   -0.00012165    0.00024606
     atom    5 type  1   force =    -0.00016146   -0.00004526   -0.00001941
     atom    6 type  1   force =     0.00008041    0.00009721    0.00008686
     atom    7 type  1   force =     0.00039650   -0.00016430   -0.00013056
     atom    8 type  1   force =    -0.00023273   -0.00000031   -0.00003078
     atom    9 type  1   force =    -0.00003986   -0.00005821   -0.00022850
     atom   10 type  1   force =    -0.00003386    0.00016075    0.00001828
     atom   11 type  1   force =     0.00009899    0.00000732    0.00021041
     atom   12 type  1   force =    -0.00009450    0.00001038    0.00017363
     atom   13 type  1   force =     0.00003741    0.00023340   -0.00005416
     atom   14 type  1   force =    -0.00009820   -0.00015273    0.00012434
     atom   15 type  1   force =     0.00008879    0.00010498   -0.00019420
     atom   16 type  1   force =     0.00004965   -0.00026936    0.00001474

     Total force =     0.000113     Total SCF correction =     0.001020
     SCF correction compared to forces is large: reduce conv_thr to get better values

     Writing all to output data dir ./out/Si.save/
 
     init_run     :      1.10s CPU      1.30s WALL (       1 calls)
     electrons    :     14.23s CPU     16.32s WALL (       1 calls)
     forces       :      0.55s CPU      0.67s WALL (       1 calls)

     Called by init_run:
     wfcinit      :      0.46s CPU      0.48s WALL (       1 calls)
     potinit      :      0.20s CPU      0.25s WALL (       1 calls)
     hinit0       :      0.26s CPU      0.28s WALL (       1 calls)

     Called by electrons:
     c_bands      :      8.60s CPU      8.67s WALL (      10 calls)
     sum_band     :      2.71s CPU      3.75s WALL (      10 calls)
     v_of_rho     :      1.51s CPU      1.62s WALL (      11 calls)
     newd         :      1.53s CPU      2.54s WALL (      11 calls)
     mix_rho      :      0.17s CPU      0.17s WALL (      10 calls)

     Called by c_bands:
     init_us_2    :      0.15s CPU      0.17s WALL (      21 calls)
     init_us_2:cp :      0.15s CPU      0.17s WALL (      21 calls)
     regterg      :      7.21s CPU      7.28s WALL (      10 calls)

     Called by *egterg:
     rdiaghg      :      0.07s CPU      0.07s WALL (      59 calls)
     h_psi        :      6.38s CPU      6.43s WALL (      60 calls)
     s_psi        :      0.53s CPU      0.53s WALL (      60 calls)
     g_psi        :      0.02s CPU      0.02s WALL (      49 calls)

     Called by h_psi:
     h_psi:calbec :      0.64s CPU      0.66s WALL (      60 calls)
     vloc_psi     :      5.19s CPU      5.22s WALL (      60 calls)
     add_vuspsi   :      0.53s CPU      0.53s WALL (      60 calls)

     General routines
     calbec       :      0.87s CPU      0.89s WALL (      74 calls)
     fft          :      0.52s CPU      0.52s WALL (     108 calls)
     ffts         :      0.05s CPU      0.05s WALL (      10 calls)
     fftw         :      5.06s CPU      5.07s WALL (    1162 calls)
 
     Parallel routines
 
     PWSCF        :     15.95s CPU     18.43s WALL

 
   This run was terminated on:   3:55:56  27Dec2022            

=------------------------------------------------------------------------------=
   JOB DONE.
=------------------------------------------------------------------------------=
