
     Program PWSCF v.7.1 starts on 27Dec2022 at  3:55:58 

     This program is part of the open-source Quantum ESPRESSO suite
     for quantum simulation of materials; please cite
         "P. Giannozzi et al., J. Phys.:Condens. Matter 21 395502 (2009);
         "P. Giannozzi et al., J. Phys.:Condens. Matter 29 465901 (2017);
         "P. Giannozzi et al., J. Chem. Phys. 152 154105 (2020);
          URL http://www.quantum-espresso.org", 
     in publications or presentations arising from this work. More details at
     http://www.quantum-espresso.org/quote

     Parallel version (MPI), running on     1 processors

     MPI processes distributed on     1 nodes
     9237 MiB available memory on the printing compute node when the environment starts
 
     Waiting for input...
     Reading input from standard input

     Current dimensions of program PWSCF are:
     Max number of different atomic species (ntypx) = 10
     Max number of k-points (npk) =  40000
     Max angular momentum in pseudopotentials (lmaxx) =  4

     gamma-point specific algorithms are used
     Message from routine setup:
     using ibrav=0 with symmetry is DISCOURAGED, use correct ibrav instead
 
     Subspace diagonalization in iterative solution of the eigenvalue problem:
     a serial algorithm will be used

 
     G-vector sticks info
     --------------------
     sticks:   dense  smooth     PW     G-vecs:    dense   smooth      PW
     Sum        3535    3535    877               138503   138503   17261
 
     Using Slab Decomposition
 


     bravais-lattice index     =            0
     lattice parameter (alat)  =      14.6150  a.u.
     unit-cell volume          =    2207.4231 (a.u.)^3
     number of atoms/cell      =           16
     number of atomic types    =            1
     number of electrons       =        64.00
     number of Kohn-Sham states=           32
     kinetic-energy cutoff     =      60.0000  Ry
     charge density cutoff     =     240.0000  Ry
     scf convergence threshold =      1.0E-06
     mixing beta               =       0.7000
     number of iterations used =            8  plain     mixing
     Exchange-correlation= PBESOL
                           (   1   4  10   8   0   0   0)

     celldm(1)=  14.615046  celldm(2)=   0.000000  celldm(3)=   0.000000
     celldm(4)=   0.000000  celldm(5)=   0.000000  celldm(6)=   0.000000

     crystal axes: (cart. coord. in units of alat)
               a(1) = (  -0.707107  -0.707107   0.000000 )  
               a(2) = (  -0.707107   0.000000  -0.707107 )  
               a(3) = (   0.000000  -0.707107  -0.707107 )  

     reciprocal axes: (cart. coord. in units 2 pi/alat)
               b(1) = ( -0.707107 -0.707107  0.707107 )  
               b(2) = ( -0.707107  0.707107 -0.707107 )  
               b(3) = (  0.707107 -0.707107 -0.707107 )  


     PseudoPot. # 1 for Si read from file:
     ../../pseudo/Si.pbesol-n-rrkjus_psl.1.0.0.UPF
     MD5 check sum: c4212819de858c94c3a1644338846ac9
     Pseudo is Ultrasoft + core correction, Zval =  4.0
     Generated using "atomic" code by A. Dal Corso  v.6.0 svn rev. 13079
     Using radial grid of 1141 points,  6 beta functions with: 
                l(1) =   0
                l(2) =   0
                l(3) =   1
                l(4) =   1
                l(5) =   2
                l(6) =   2
     Q(r) pseudized with 0 coefficients 


     atomic species   valence    mass     pseudopotential
        Si             4.00    28.08550     Si( 1.00)

      2 Sym. Ops. (no inversion) found



   Cartesian axes

     site n.     atom                  positions (alat units)
         1           Si  tau(   1) = (  -0.1777443  -0.1777443  -0.1767767  )
         2           Si  tau(   2) = (  -0.5303301  -0.5303301  -0.1767767  )
         3           Si  tau(   3) = (  -0.5303301  -0.1767767  -0.5303301  )
         4           Si  tau(   4) = (  -0.8838835  -0.5303301  -0.5303301  )
         5           Si  tau(   5) = (  -0.1767767  -0.5303301  -0.5303301  )
         6           Si  tau(   6) = (  -0.5303301  -0.8838835  -0.5303301  )
         7           Si  tau(   7) = (  -0.5303301  -0.5303301  -0.8838835  )
         8           Si  tau(   8) = (  -0.8838835  -0.8838835  -0.8838835  )
         9           Si  tau(   9) = (  -0.3535534  -0.3535534  -0.3535534  )
        10           Si  tau(  10) = (  -0.7071068  -0.7071068  -0.3535534  )
        11           Si  tau(  11) = (  -0.7071068  -0.3535534  -0.7071068  )
        12           Si  tau(  12) = (  -1.0606602  -0.7071068  -0.7071068  )
        13           Si  tau(  13) = (  -0.3535534  -0.7071068  -0.7071068  )
        14           Si  tau(  14) = (  -0.7071068  -1.0606602  -0.7071068  )
        15           Si  tau(  15) = (  -0.7071068  -0.7071068  -1.0606602  )
        16           Si  tau(  16) = (  -1.0606602  -1.0606602  -1.0606602  )

     number of k points=     1
                       cart. coord. in units 2pi/alat
        k(    1) = (   0.0000000   0.0000000   0.0000000), wk =   2.0000000

     Dense  grid:    69252 G-vectors     FFT dimensions: (  75,  75,  75)

     Estimated max dynamical RAM per process >     347.05 MB

     Initial potential from superposition of free atoms

     starting charge      63.9914, renormalised to      64.0000
     Starting wfcs are   64 randomized atomic wfcs

     total cpu time spent up to now is        1.4 secs

     Self-consistent Calculation

     iteration #  1     ecut=    60.00 Ry     beta= 0.70
     Davidson diagonalization with overlap
     ethr =  1.00E-02,  avg # of iterations =  2.0

     total cpu time spent up to now is        3.0 secs

     total energy              =    -179.84544387 Ry
     estimated scf accuracy    <       0.74164506 Ry

     iteration #  2     ecut=    60.00 Ry     beta= 0.70
     Davidson diagonalization with overlap
     ethr =  1.16E-03,  avg # of iterations =  2.0

     total cpu time spent up to now is        4.4 secs

     total energy              =    -179.88765036 Ry
     estimated scf accuracy    <       0.04355284 Ry

     iteration #  3     ecut=    60.00 Ry     beta= 0.70
     Davidson diagonalization with overlap
     ethr =  6.81E-05,  avg # of iterations =  3.0

     total cpu time spent up to now is        6.1 secs

     total energy              =    -179.90213879 Ry
     estimated scf accuracy    <       0.00165321 Ry

     iteration #  4     ecut=    60.00 Ry     beta= 0.70
     Davidson diagonalization with overlap
     ethr =  2.58E-06,  avg # of iterations =  5.0

     total cpu time spent up to now is        7.9 secs

     total energy              =    -179.90293120 Ry
     estimated scf accuracy    <       0.00042826 Ry

     iteration #  5     ecut=    60.00 Ry     beta= 0.70
     Davidson diagonalization with overlap
     ethr =  6.69E-07,  avg # of iterations =  2.0

     total cpu time spent up to now is        9.5 secs

     total energy              =    -179.90298527 Ry
     estimated scf accuracy    <       0.00002540 Ry

     iteration #  6     ecut=    60.00 Ry     beta= 0.70
     Davidson diagonalization with overlap
     ethr =  3.97E-08,  avg # of iterations = 12.0

     total cpu time spent up to now is       11.6 secs

     total energy              =    -179.90300715 Ry
     estimated scf accuracy    <       0.00000602 Ry

     iteration #  7     ecut=    60.00 Ry     beta= 0.70
     Davidson diagonalization with overlap
     ethr =  9.41E-09,  avg # of iterations =  8.0

     total cpu time spent up to now is       13.3 secs

     total energy              =    -179.90300802 Ry
     estimated scf accuracy    <       0.00000204 Ry

     iteration #  8     ecut=    60.00 Ry     beta= 0.70
     Davidson diagonalization with overlap
     ethr =  3.19E-09,  avg # of iterations =  2.0

     total cpu time spent up to now is       14.8 secs

     End of self-consistent calculation

          k = 0.0000 0.0000 0.0000 (  8631 PWs)   bands (ev):

    -5.6714  -3.3560  -3.3510  -3.3508  -3.3460  -1.5708  -1.5622  -1.5621
    -1.5620  -1.5618  -1.5534  -0.7638  -0.7588  -0.7585  -0.7534   3.3459
     3.3488   3.3497   3.3497   3.3504   3.3535   5.0141   5.0220   5.0233
     5.0241   5.0250   5.0258   5.0272   5.0350   6.2356   6.2420   6.2485

     highest occupied level (ev):     6.2485

!    total energy              =    -179.90300826 Ry
     estimated scf accuracy    <       0.00000028 Ry

     The total energy is the sum of the following terms:
     one-electron contribution =      40.93715411 Ry
     hartree contribution      =      10.11515977 Ry
     xc contribution           =     -97.51567863 Ry
     ewald contribution        =    -133.43964351 Ry

     convergence has been achieved in   8 iterations

     Forces acting on atoms (cartesian axes, Ry/au):

     atom    1 type  1   force =     0.00330315    0.00330315    0.00005003
     atom    2 type  1   force =    -0.00001566   -0.00001566   -0.00002740
     atom    3 type  1   force =     0.00017387    0.00054171   -0.00018648
     atom    4 type  1   force =     0.00055694    0.00018001    0.00021908
     atom    5 type  1   force =     0.00054171    0.00017387   -0.00018648
     atom    6 type  1   force =     0.00018001    0.00055694    0.00021908
     atom    7 type  1   force =     0.00038086    0.00038086   -0.00000060
     atom    8 type  1   force =    -0.00021487   -0.00021487   -0.00002855
     atom    9 type  1   force =    -0.00182619   -0.00182619   -0.00121828
     atom   10 type  1   force =    -0.00173493   -0.00173493    0.00107100
     atom   11 type  1   force =    -0.00066296   -0.00065276    0.00004621
     atom   12 type  1   force =     0.00012809    0.00017008    0.00002768
     atom   13 type  1   force =    -0.00065276   -0.00066296    0.00004621
     atom   14 type  1   force =     0.00017008    0.00012809    0.00002768
     atom   15 type  1   force =    -0.00014781   -0.00014781    0.00028538
     atom   16 type  1   force =    -0.00017953   -0.00017953   -0.00034457
     The non-local contrib.  to forces
     atom    1 type  1   force =     0.00484280    0.00484280   -0.00002809
     atom    2 type  1   force =    -0.00078206   -0.00078206   -0.00000455
     atom    3 type  1   force =    -0.00058781    0.00037562   -0.00019843
     atom    4 type  1   force =     0.00033522   -0.00062630    0.00020799
     atom    5 type  1   force =     0.00037562   -0.00058781   -0.00019843
     atom    6 type  1   force =    -0.00062630    0.00033522    0.00020799
     atom    7 type  1   force =    -0.00033755   -0.00033755    0.00006119
     atom    8 type  1   force =     0.00009207    0.00009207    0.00001562
     atom    9 type  1   force =    -0.00245344   -0.00245344   -0.00328575
     atom   10 type  1   force =    -0.00248397   -0.00248397    0.00335730
     atom   11 type  1   force =     0.00087257    0.00090136   -0.00010754
     atom   12 type  1   force =    -0.00003015   -0.00003566   -0.00004582
     atom   13 type  1   force =     0.00090136    0.00087257   -0.00010754
     atom   14 type  1   force =    -0.00003566   -0.00003015   -0.00004582
     atom   15 type  1   force =     0.00003704    0.00003704    0.00006874
     atom   16 type  1   force =    -0.00001889   -0.00001889    0.00010550
     The ionic contribution  to forces
     atom    1 type  1   force =     0.01288145    0.01288145    0.00017240
     atom    2 type  1   force =    -0.00471191   -0.00471191   -0.00000000
     atom    3 type  1   force =    -0.00174721    0.00091824   -0.00296456
     atom    4 type  1   force =     0.00091824   -0.00174721    0.00296456
     atom    5 type  1   force =     0.00091824   -0.00174721   -0.00296456
     atom    6 type  1   force =    -0.00174721    0.00091824    0.00296456
     atom    7 type  1   force =     0.00121732    0.00121732    0.00000000
     atom    8 type  1   force =    -0.00085875   -0.00085875    0.00000000
     atom    9 type  1   force =    -0.00591406   -0.00591406   -0.01015841
     atom   10 type  1   force =    -0.00589587   -0.00589587    0.01002727
     atom   11 type  1   force =     0.00416009    0.00421467   -0.00002919
     atom   12 type  1   force =    -0.00154432   -0.00155646    0.00000833
     atom   13 type  1   force =     0.00421467    0.00416009   -0.00002919
     atom   14 type  1   force =    -0.00155646   -0.00154432    0.00000833
     atom   15 type  1   force =    -0.00016509   -0.00016509   -0.00138302
     atom   16 type  1   force =    -0.00016913   -0.00016913    0.00138348
     The local contribution  to forces
     atom    1 type  1   force =    -0.01392025   -0.01386004   -0.00021363
     atom    2 type  1   force =     0.00547241    0.00543471   -0.00014513
     atom    3 type  1   force =     0.00256123   -0.00079263    0.00306260
     atom    4 type  1   force =    -0.00070519    0.00242533   -0.00282044
     atom    5 type  1   force =    -0.00085575    0.00252796    0.00300196
     atom    6 type  1   force =     0.00251974   -0.00058418   -0.00292435
     atom    7 type  1   force =    -0.00039973   -0.00059123   -0.00006457
     atom    8 type  1   force =     0.00049682    0.00051158   -0.00004318
     atom    9 type  1   force =     0.00615218    0.00621116    0.01173563
     atom   10 type  1   force =     0.00634834    0.00638175   -0.01195579
     atom   11 type  1   force =    -0.00551211   -0.00576007    0.00020386
     atom   12 type  1   force =     0.00173677    0.00178747    0.00009442
     atom   13 type  1   force =    -0.00577040   -0.00547966    0.00015569
     atom   14 type  1   force =     0.00168469    0.00174185    0.00004027
     atom   15 type  1   force =     0.00004600    0.00001056    0.00166184
     atom   16 type  1   force =     0.00005633   -0.00012814   -0.00173205
     The core correction contribution to forces
     atom    1 type  1   force =    -0.00061395   -0.00061877    0.00000009
     atom    2 type  1   force =     0.00010169    0.00009987   -0.00000983
     atom    3 type  1   force =     0.00007583   -0.00004965    0.00003217
     atom    4 type  1   force =    -0.00002380    0.00006277   -0.00003075
     atom    5 type  1   force =    -0.00004903    0.00008226    0.00003250
     atom    6 type  1   force =     0.00006465   -0.00002421   -0.00003335
     atom    7 type  1   force =     0.00003721    0.00002574    0.00000201
     atom    8 type  1   force =    -0.00000454   -0.00000351    0.00000685
     atom    9 type  1   force =     0.00031823    0.00031382    0.00042556
     atom   10 type  1   force =     0.00032043    0.00032135   -0.00044216
     atom   11 type  1   force =    -0.00011932   -0.00012941    0.00001508
     atom   12 type  1   force =     0.00001089    0.00001461    0.00000418
     atom   13 type  1   force =    -0.00012337   -0.00011121    0.00001238
     atom   14 type  1   force =    -0.00000160    0.00001140    0.00000791
     atom   15 type  1   force =    -0.00000698   -0.00000349    0.00000109
     atom   16 type  1   force =     0.00000870   -0.00000974   -0.00001474
     The Hubbard contrib.    to forces
     atom    1 type  1   force =     0.00000000    0.00000000    0.00000000
     atom    2 type  1   force =     0.00000000    0.00000000    0.00000000
     atom    3 type  1   force =     0.00000000    0.00000000    0.00000000
     atom    4 type  1   force =     0.00000000    0.00000000    0.00000000
     atom    5 type  1   force =     0.00000000    0.00000000    0.00000000
     atom    6 type  1   force =     0.00000000    0.00000000    0.00000000
     atom    7 type  1   force =     0.00000000    0.00000000    0.00000000
     atom    8 type  1   force =     0.00000000    0.00000000    0.00000000
     atom    9 type  1   force =     0.00000000    0.00000000    0.00000000
     atom   10 type  1   force =     0.00000000    0.00000000    0.00000000
     atom   11 type  1   force =     0.00000000    0.00000000    0.00000000
     atom   12 type  1   force =     0.00000000    0.00000000    0.00000000
     atom   13 type  1   force =     0.00000000    0.00000000    0.00000000
     atom   14 type  1   force =     0.00000000    0.00000000    0.00000000
     atom   15 type  1   force =     0.00000000    0.00000000    0.00000000
     atom   16 type  1   force =     0.00000000    0.00000000    0.00000000
     The SCF correction term to forces
     atom    1 type  1   force =     0.00013776    0.00002935    0.00012147
     atom    2 type  1   force =    -0.00007754   -0.00007820    0.00013431
     atom    3 type  1   force =    -0.00018235    0.00006853   -0.00010362
     atom    4 type  1   force =     0.00002904    0.00007628   -0.00008253
     atom    5 type  1   force =     0.00017054   -0.00005082   -0.00006815
     atom    6 type  1   force =    -0.00004542   -0.00008838   -0.00001111
     atom    7 type  1   force =    -0.00008595    0.00001244    0.00000298
     atom    8 type  1   force =     0.00005786    0.00004171   -0.00000563
     atom    9 type  1   force =     0.00008551   -0.00000197    0.00006690
     atom   10 type  1   force =    -0.00001176   -0.00007398    0.00008658
     atom   11 type  1   force =    -0.00010263    0.00010888   -0.00000837
     atom   12 type  1   force =    -0.00004429    0.00002904   -0.00006953
     atom   13 type  1   force =     0.00013312   -0.00007002   -0.00000835
     atom   14 type  1   force =     0.00000650   -0.00005517    0.00005752
     atom   15 type  1   force =    -0.00007383   -0.00001547   -0.00006106
     atom   16 type  1   force =     0.00001207    0.00007408   -0.00008455

     Total force =     0.006416     Total SCF correction =     0.000541

     Writing all to output data dir ./out/Si.save/
 
     init_run     :      1.14s CPU      1.34s WALL (       1 calls)
     electrons    :     11.78s CPU     13.43s WALL (       1 calls)
     forces       :      0.54s CPU      0.68s WALL (       1 calls)

     Called by init_run:
     wfcinit      :      0.47s CPU      0.49s WALL (       1 calls)
     potinit      :      0.22s CPU      0.27s WALL (       1 calls)
     hinit0       :      0.27s CPU      0.30s WALL (       1 calls)

     Called by electrons:
     c_bands      :      7.24s CPU      7.27s WALL (       8 calls)
     sum_band     :      2.19s CPU      3.02s WALL (       8 calls)
     v_of_rho     :      1.26s CPU      1.36s WALL (       9 calls)
     newd         :      1.29s CPU      2.09s WALL (       9 calls)
     mix_rho      :      0.12s CPU      0.13s WALL (       8 calls)

     Called by c_bands:
     init_us_2    :      0.12s CPU      0.14s WALL (      17 calls)
     init_us_2:cp :      0.12s CPU      0.14s WALL (      17 calls)
     regterg      :      6.13s CPU      6.15s WALL (       8 calls)

     Called by *egterg:
     rdiaghg      :      0.05s CPU      0.05s WALL (      44 calls)
     h_psi        :      5.51s CPU      5.52s WALL (      45 calls)
     s_psi        :      0.44s CPU      0.44s WALL (      45 calls)
     g_psi        :      0.02s CPU      0.02s WALL (      36 calls)

     Called by h_psi:
     h_psi:calbec :      0.54s CPU      0.54s WALL (      45 calls)
     vloc_psi     :      4.51s CPU      4.52s WALL (      45 calls)
     add_vuspsi   :      0.44s CPU      0.44s WALL (      45 calls)

     General routines
     calbec       :      0.74s CPU      0.74s WALL (      57 calls)
     fft          :      0.44s CPU      0.44s WALL (      90 calls)
     ffts         :      0.04s CPU      0.04s WALL (       8 calls)
     fftw         :      4.33s CPU      4.33s WALL (     994 calls)
 
     Parallel routines
 
     PWSCF        :     13.55s CPU     15.54s WALL

 
   This run was terminated on:   3:56:13  27Dec2022            

=------------------------------------------------------------------------------=
   JOB DONE.
=------------------------------------------------------------------------------=
