
     Program PWSCF v.7.1 starts on 10Dec2022 at 19:20:11 
        Git branch: develop
        Last git commit: 9ddde6fa44e0fb1c7debb78532a4b581a6ef82fd
        Last git commit date: Fri Oct 28 07:34:35 2022 +0000
        Last git commit subject: Merge branch 'fix_hubbardocc' into 'develop'

     This program is part of the open-source Quantum ESPRESSO suite
     for quantum simulation of materials; please cite
         "P. Giannozzi et al., J. Phys.:Condens. Matter 21 395502 (2009);
         "P. Giannozzi et al., J. Phys.:Condens. Matter 29 465901 (2017);
         "P. Giannozzi et al., J. Chem. Phys. 152 154105 (2020);
          URL http://www.quantum-espresso.org", 
     in publications or presentations arising from this work. More details at
     http://www.quantum-espresso.org/quote

     Parallel version (MPI), running on     1 processors

     MPI processes distributed on     1 nodes
     0 MiB available memory on the printing compute node when the environment starts

     Waiting for input...
     Reading input from standard input
Warning: card &IONS ignored
Warning: card / ignored
Warning: card &CELL ignored
Warning: card / ignored

     Current dimensions of program PWSCF are:
     Max number of different atomic species (ntypx) = 10
     Max number of k-points (npk) =  40000
     Max angular momentum in pseudopotentials (lmaxx) =  4

     Atomic positions and unit cell read from directory:
     ./out/Si.save/
     Atomic positions from file used, from input discarded

     Message from routine setup:
     using ibrav=0 with symmetry is DISCOURAGED, use correct ibrav instead

     Subspace diagonalization in iterative solution of the eigenvalue problem:
     a serial algorithm will be used


     G-vector sticks info
     --------------------
     sticks:   dense  smooth     PW     G-vecs:    dense   smooth      PW
     Sum         877     877    265                17261    17261    2837

     Using Slab Decomposition



     bravais-lattice index     =            0
     lattice parameter (alat)  =       7.3075  a.u.
     unit-cell volume          =     275.9279 (a.u.)^3
     number of atoms/cell      =            2
     number of atomic types    =            1
     number of electrons       =         8.00
     number of Kohn-Sham states=            4
     kinetic-energy cutoff     =      60.0000  Ry
     charge density cutoff     =     240.0000  Ry
     Exchange-correlation= PBESOL
                           (   1   4  10   8   0   0   0)

     celldm(1)=   7.307523  celldm(2)=   0.000000  celldm(3)=   0.000000
     celldm(4)=   0.000000  celldm(5)=   0.000000  celldm(6)=   0.000000

     crystal axes: (cart. coord. in units of alat)
               a(1) = (  -0.707107  -0.707107   0.000000 )  
               a(2) = (  -0.707107   0.000000  -0.707107 )  
               a(3) = (   0.000000  -0.707107  -0.707107 )  

     reciprocal axes: (cart. coord. in units 2 pi/alat)
               b(1) = ( -0.707107 -0.707107  0.707107 )  
               b(2) = ( -0.707107  0.707107 -0.707107 )  
               b(3) = (  0.707107 -0.707107 -0.707107 )  


     PseudoPot. # 1 for Si read from file:
     ../pseudo/Si.pbesol-n-rrkjus_psl.1.0.0.UPF
     MD5 check sum: c4212819de858c94c3a1644338846ac9
     Pseudo is Ultrasoft + core correction, Zval =  4.0
     Generated using "atomic" code by A. Dal Corso  v.6.0 svn rev. 13079
     Using radial grid of 1141 points,  6 beta functions with: 
                l(1) =   0
                l(2) =   0
                l(3) =   1
                l(4) =   1
                l(5) =   2
                l(6) =   2
     Q(r) pseudized with 0 coefficients 


     atomic species   valence    mass     pseudopotential
        Si             4.00    28.08550     Si( 1.00)

     48 Sym. Ops., with inversion, found (24 have fractional translation)



   Cartesian axes

     site n.     atom                  positions (alat units)
         1           Si  tau(   1) = (  -0.3535534  -0.3535534  -0.3535534  )
         2           Si  tau(   2) = (  -0.7071068  -0.7071068  -0.7071068  )

     number of k points=    16
                       cart. coord. in units 2pi/alat
        k(    1) = (   0.0000000   0.0000000   0.0000000), wk =   0.0092593
        k(    2) = (   0.1178511  -0.1178511  -0.1178511), wk =   0.0740741
        k(    3) = (   0.2357023  -0.2357023  -0.2357023), wk =   0.0740741
        k(    4) = (  -0.3535534   0.3535534   0.3535534), wk =   0.0370370
        k(    5) = (   0.0000000   0.0000000  -0.2357023), wk =   0.0555556
        k(    6) = (   0.1178511  -0.1178511  -0.3535534), wk =   0.2222222
        k(    7) = (  -0.4714045   0.4714045   0.2357023), wk =   0.2222222
        k(    8) = (  -0.3535534   0.3535534   0.1178511), wk =   0.2222222
        k(    9) = (  -0.2357023   0.2357023  -0.0000000), wk =   0.1111111
        k(   10) = (   0.0000000   0.0000000  -0.4714045), wk =   0.0555556
        k(   11) = (  -0.5892557   0.5892557   0.1178511), wk =   0.2222222
        k(   12) = (  -0.4714045   0.4714045   0.0000000), wk =   0.1111111
        k(   13) = (   0.0000000   0.0000000   0.7071068), wk =   0.0277778
        k(   14) = (  -0.7071068   0.4714045   0.2357023), wk =   0.2222222
        k(   15) = (  -0.5892557   0.3535534   0.1178511), wk =   0.2222222
        k(   16) = (  -0.0000000  -0.2357023   0.7071068), wk =   0.1111111

     Dense  grid:    17261 G-vectors     FFT dimensions: (  40,  40,  40)

     Estimated max dynamical RAM per process >      58.69 MB

     The potential is recalculated from file :
     ./out/Si.save/charge-density

     Starting wfcs are    8 randomized atomic wfcs

     Band Structure Calculation
     Davidson diagonalization with overlap

     ethr =  1.25E-08,  avg # of iterations = 16.9

     total cpu time spent up to now is        1.9 secs

     End of band structure calculation

          k = 0.0000 0.0000 0.0000 (  2109 PWs)   bands (ev):

    -5.8725   5.9836   5.9836   5.9836

          k = 0.1179-0.1179-0.1179 (  2151 PWs)   bands (ev):

    -5.5163   3.5936   5.5346   5.5346

          k = 0.2357-0.2357-0.2357 (  2151 PWs)   bands (ev):

    -4.5147   0.6692   4.9893   4.9893

          k =-0.3536 0.3536 0.3536 (  2138 PWs)   bands (ev):

    -3.5730  -0.9464   4.7933   4.7933

          k = 0.0000 0.0000-0.2357 (  2145 PWs)   bands (ev):

    -5.3951   3.9214   4.7960   4.7960

          k = 0.1179-0.1179-0.3536 (  2158 PWs)   bands (ev):

    -4.5911   1.5542   3.9877   4.2484

          k =-0.4714 0.4714 0.2357 (  2161 PWs)   bands (ev):

    -3.4160  -0.5876   3.2080   4.2194

          k =-0.3536 0.3536 0.1179 (  2160 PWs)   bands (ev):

    -3.7956   0.0040   2.9413   4.6949

          k =-0.2357 0.2357-0.0000 (  2149 PWs)   bands (ev):

    -4.9362   2.2653   3.5753   5.4221

          k = 0.0000 0.0000-0.4714 (  2181 PWs)   bands (ev):

    -3.9946   0.9814   3.5832   3.5832

          k =-0.5893 0.5893 0.1179 (  2161 PWs)   bands (ev):

    -2.8468  -0.5513   2.3684   3.4484

          k =-0.4714 0.4714 0.0000 (  2185 PWs)   bands (ev):

    -2.6534  -0.7529   1.5914   3.8868

          k = 0.0000 0.0000 0.7071 (  2200 PWs)   bands (ev):

    -1.7856  -1.7856   3.1532   3.1532

          k =-0.7071 0.4714 0.2357 (  2166 PWs)   bands (ev):

    -3.6147   0.3587   2.4280   3.6985

          k =-0.5893 0.3536 0.1179 (  2194 PWs)   bands (ev):

    -2.6436  -0.8243   1.9896   3.2349

          k =-0.0000-0.2357 0.7071 (  2174 PWs)   bands (ev):

    -1.6674  -1.6674   2.3565   2.3565

     highest occupied level (ev):     5.9836

     Writing all to output data dir ./out/Si.save/

     init_run     :      0.52s CPU      0.55s WALL (       1 calls)
     electrons    :      1.20s CPU      1.22s WALL (       1 calls)

     Called by init_run:
     wfcinit      :      0.00s CPU      0.00s WALL (       1 calls)
     potinit      :      0.02s CPU      0.03s WALL (       1 calls)
     hinit0       :      0.48s CPU      0.48s WALL (       1 calls)

     Called by electrons:
     c_bands      :      1.20s CPU      1.22s WALL (       1 calls)
     v_of_rho     :      0.02s CPU      0.02s WALL (       1 calls)
     newd         :      0.02s CPU      0.02s WALL (       1 calls)

     Called by c_bands:
     init_us_2    :      0.01s CPU      0.01s WALL (      16 calls)
     init_us_2:cp :      0.01s CPU      0.01s WALL (      16 calls)
     cegterg      :      0.79s CPU      0.79s WALL (      16 calls)

     Called by *egterg:
     cdiaghg      :      0.02s CPU      0.02s WALL (     286 calls)
     h_psi        :      1.01s CPU      1.01s WALL (     302 calls)
     s_psi        :      0.04s CPU      0.04s WALL (     302 calls)
     g_psi        :      0.00s CPU      0.00s WALL (     270 calls)

     Called by h_psi:
     h_psi:calbec :      0.05s CPU      0.05s WALL (     302 calls)
     vloc_psi     :      0.92s CPU      0.92s WALL (     302 calls)
     add_vuspsi   :      0.04s CPU      0.04s WALL (     302 calls)

     General routines
     calbec       :      0.05s CPU      0.05s WALL (     302 calls)
     fft          :      0.32s CPU      0.33s WALL (      12 calls)
     fftw         :      0.83s CPU      0.83s WALL (    2206 calls)
     davcio       :      0.00s CPU      0.01s WALL (      32 calls)

     Parallel routines

     PWSCF        :      1.89s CPU      1.99s WALL


   This run was terminated on:  19:20:13  10Dec2022            

=------------------------------------------------------------------------------=
   JOB DONE.
=------------------------------------------------------------------------------=
