
     Program PWSCF v.7.1 starts on 18Dec2023 at 15:38:28 

     This program is part of the open-source Quantum ESPRESSO suite
     for quantum simulation of materials; please cite
         "P. Giannozzi et al., J. Phys.:Condens. Matter 21 395502 (2009);
         "P. Giannozzi et al., J. Phys.:Condens. Matter 29 465901 (2017);
         "P. Giannozzi et al., J. Chem. Phys. 152 154105 (2020);
          URL http://www.quantum-espresso.org", 
     in publications or presentations arising from this work. More details at
     http://www.quantum-espresso.org/quote

     Parallel version (MPI), running on     1 processors

     MPI processes distributed on     1 nodes
     2231 MiB available memory on the printing compute node when the environment starts
 
     Waiting for input...
     Reading input from standard input

     Current dimensions of program PWSCF are:
     Max number of different atomic species (ntypx) = 10
     Max number of k-points (npk) =  40000
     Max angular momentum in pseudopotentials (lmaxx) =  4
 
     Subspace diagonalization in iterative solution of the eigenvalue problem:
     a serial algorithm will be used

 
     G-vector sticks info
     --------------------
     sticks:   dense  smooth     PW     G-vecs:    dense   smooth      PW
     Sum        2479     823    253                81451    15593    2685
 
     Using Slab Decomposition
 


     bravais-lattice index     =            2
     lattice parameter (alat)  =      10.0000  a.u.
     unit-cell volume          =     250.0000 (a.u.)^3
     number of atoms/cell      =            2
     number of atomic types    =            1
     number of electrons       =         8.00
     number of Kohn-Sham states=            4
     kinetic-energy cutoff     =      60.0000  Ry
     charge density cutoff     =     720.0000  Ry
     scf convergence threshold =      1.0E-08
     mixing beta               =       0.7000
     number of iterations used =            8  plain     mixing
     Exchange-correlation= PBESOL
                           (   1   4  10   8   0   0   0)

     celldm(1)=  10.000000  celldm(2)=   0.000000  celldm(3)=   0.000000
     celldm(4)=   0.000000  celldm(5)=   0.000000  celldm(6)=   0.000000

     crystal axes: (cart. coord. in units of alat)
               a(1) = (  -0.500000   0.000000   0.500000 )  
               a(2) = (   0.000000   0.500000   0.500000 )  
               a(3) = (  -0.500000   0.500000   0.000000 )  

     reciprocal axes: (cart. coord. in units 2 pi/alat)
               b(1) = ( -1.000000 -1.000000  1.000000 )  
               b(2) = (  1.000000  1.000000  1.000000 )  
               b(3) = ( -1.000000  1.000000 -1.000000 )  


     PseudoPot. # 1 for Si read from file:
     ../../pseudo/Si.pbesol-n-rrkjus_psl.1.0.0.UPF
     MD5 check sum: c4212819de858c94c3a1644338846ac9
     Pseudo is Ultrasoft + core correction, Zval =  4.0
     Generated using "atomic" code by A. Dal Corso  v.6.0 svn rev. 13079
     Using radial grid of 1141 points,  6 beta functions with: 
                l(1) =   0
                l(2) =   0
                l(3) =   1
                l(4) =   1
                l(5) =   2
                l(6) =   2
     Q(r) pseudized with 0 coefficients 


     atomic species   valence    mass     pseudopotential
        Si             4.00    28.08550     Si( 1.00)

     48 Sym. Ops., with inversion, found (24 have fractional translation)



   Cartesian axes

     site n.     atom                  positions (alat units)
         1           Si  tau(   1) = (   0.0000000   0.0000000   0.0000000  )
         2           Si  tau(   2) = (   0.2500000   0.2500000   0.2500000  )

     number of k points=    10
                       cart. coord. in units 2pi/alat
        k(    1) = (  -0.1250000   0.1250000   0.1250000), wk =   0.0625000
        k(    2) = (  -0.3750000   0.3750000  -0.1250000), wk =   0.1875000
        k(    3) = (   0.3750000  -0.3750000   0.6250000), wk =   0.1875000
        k(    4) = (   0.1250000  -0.1250000   0.3750000), wk =   0.1875000
        k(    5) = (  -0.1250000   0.6250000   0.1250000), wk =   0.1875000
        k(    6) = (   0.6250000  -0.1250000   0.8750000), wk =   0.3750000
        k(    7) = (   0.3750000   0.1250000   0.6250000), wk =   0.3750000
        k(    8) = (  -0.1250000  -0.8750000   0.1250000), wk =   0.1875000
        k(    9) = (  -0.3750000   0.3750000   0.3750000), wk =   0.0625000
        k(   10) = (   0.3750000  -0.3750000   1.1250000), wk =   0.1875000

     Dense  grid:    81451 G-vectors     FFT dimensions: (  64,  64,  64)

     Smooth grid:    15593 G-vectors     FFT dimensions: (  36,  36,  36)

     Estimated max dynamical RAM per process >     289.57 MB

     Initial potential from superposition of free atoms

     starting charge       7.9989, renormalised to       8.0000
     Starting wfcs are    8 randomized atomic wfcs

     total cpu time spent up to now is        1.1 secs

     Self-consistent Calculation

     iteration #  1     ecut=    60.00 Ry     beta= 0.70
     Davidson diagonalization with overlap
     ethr =  1.00E-02,  avg # of iterations =  2.0

     Threshold (ethr) on eigenvalues was too large:
     Diagonalizing with lowered threshold

     Davidson diagonalization with overlap
     ethr =  6.92E-04,  avg # of iterations =  1.2

     total cpu time spent up to now is        2.8 secs

     total energy              =     -22.66805025 Ry
     estimated scf accuracy    <       0.06014855 Ry

     iteration #  2     ecut=    60.00 Ry     beta= 0.70
     Davidson diagonalization with overlap
     ethr =  7.52E-04,  avg # of iterations =  1.0

     total cpu time spent up to now is        3.8 secs

     total energy              =     -22.67074909 Ry
     estimated scf accuracy    <       0.00246848 Ry

     iteration #  3     ecut=    60.00 Ry     beta= 0.70
     Davidson diagonalization with overlap
     ethr =  3.09E-05,  avg # of iterations =  2.9

     total cpu time spent up to now is        4.9 secs

     total energy              =     -22.67190145 Ry
     estimated scf accuracy    <       0.00016971 Ry

     iteration #  4     ecut=    60.00 Ry     beta= 0.70
     Davidson diagonalization with overlap
     ethr =  2.12E-06,  avg # of iterations =  3.6

     total cpu time spent up to now is        5.9 secs

     total energy              =     -22.67195867 Ry
     estimated scf accuracy    <       0.00003687 Ry

     iteration #  5     ecut=    60.00 Ry     beta= 0.70
     Davidson diagonalization with overlap
     ethr =  4.61E-07,  avg # of iterations =  3.3

     total cpu time spent up to now is        7.0 secs

     total energy              =     -22.67196843 Ry
     estimated scf accuracy    <       0.00000031 Ry

     iteration #  6     ecut=    60.00 Ry     beta= 0.70
     Davidson diagonalization with overlap
     ethr =  3.82E-09,  avg # of iterations =  6.6

     total cpu time spent up to now is        8.2 secs

     End of self-consistent calculation

          k =-0.1250 0.1250 0.1250 (  1964 PWs)   bands (ev):

    -5.3262   5.3479   6.6832   6.6832

          k =-0.3750 0.3750-0.1250 (  1961 PWs)   bands (ev):

    -4.2000   2.1773   4.5006   6.1804

          k = 0.3750-0.3750 0.6250 (  1967 PWs)   bands (ev):

    -2.9091  -0.1365   4.5766   5.3177

          k = 0.1250-0.1250 0.3750 (  1967 PWs)   bands (ev):

    -4.7495   3.6811   5.5582   5.6864

          k =-0.1250 0.6250 0.1250 (  1972 PWs)   bands (ev):

    -3.6210   1.9529   4.0917   4.6029

          k = 0.6250-0.1250 0.8750 (  1958 PWs)   bands (ev):

    -1.7901  -0.1560   2.5407   3.7481

          k = 0.3750 0.1250 0.6250 (  1956 PWs)   bands (ev):

    -3.1512   0.9290   3.4054   4.8952

          k =-0.1250-0.8750 0.1250 (  1969 PWs)   bands (ev):

    -2.0062  -0.0322   3.2324   4.0960

          k =-0.3750 0.3750 0.3750 (  1952 PWs)   bands (ev):

    -3.7126   0.7231   5.8415   5.8415

          k = 0.3750-0.3750 1.1250 (  1960 PWs)   bands (ev):

    -2.3698   0.0717   2.6549   4.9614

     highest occupied level (ev):     6.6832

!    total energy              =     -22.67196925 Ry
     estimated scf accuracy    <          1.0E-09 Ry

     The total energy is the sum of the following terms:
     one-electron contribution =       5.79135749 Ry
     hartree contribution      =       1.01372303 Ry
     xc contribution           =     -12.23929603 Ry
     ewald contribution        =     -17.23775374 Ry

     convergence has been achieved in   6 iterations

     Writing all to output data dir ./out/Si.save/
 
     init_run     :      0.81s CPU      1.03s WALL (       1 calls)
     electrons    :      5.05s CPU      7.13s WALL (       1 calls)

     Called by init_run:
     wfcinit      :      0.11s CPU      0.11s WALL (       1 calls)
     potinit      :      0.14s CPU      0.18s WALL (       1 calls)
     hinit0       :      0.35s CPU      0.37s WALL (       1 calls)

     Called by electrons:
     c_bands      :      1.61s CPU      1.63s WALL (       7 calls)
     sum_band     :      1.73s CPU      2.96s WALL (       7 calls)
     v_of_rho     :      0.76s CPU      0.81s WALL (       7 calls)
     newd         :      1.14s CPU      2.09s WALL (       7 calls)
     mix_rho      :      0.04s CPU      0.04s WALL (       7 calls)

     Called by c_bands:
     init_us_2    :      0.09s CPU      0.09s WALL (     150 calls)
     init_us_2:cp :      0.09s CPU      0.09s WALL (     150 calls)
     cegterg      :      1.15s CPU      1.17s WALL (      70 calls)

     Called by *egterg:
     cdiaghg      :      0.02s CPU      0.02s WALL (     266 calls)
     h_psi        :      1.09s CPU      1.11s WALL (     286 calls)
     s_psi        :      0.05s CPU      0.05s WALL (     286 calls)
     g_psi        :      0.01s CPU      0.01s WALL (     206 calls)

     Called by h_psi:
     h_psi:calbec :      0.06s CPU      0.06s WALL (     286 calls)
     vloc_psi     :      0.98s CPU      0.99s WALL (     286 calls)
     add_vuspsi   :      0.05s CPU      0.05s WALL (     286 calls)

     General routines
     calbec       :      0.07s CPU      0.07s WALL (     356 calls)
     fft          :      0.21s CPU      0.22s WALL (      90 calls)
     ffts         :      0.00s CPU      0.00s WALL (      14 calls)
     fftw         :      0.63s CPU      0.64s WALL (    2270 calls)
     interpolate  :      0.02s CPU      0.02s WALL (       7 calls)
 
     Parallel routines
 
     PWSCF        :      5.94s CPU      8.28s WALL

 
   This run was terminated on:  15:38:36  18Dec2023            

=------------------------------------------------------------------------------=
   JOB DONE.
=------------------------------------------------------------------------------=
