
     Program PWSCF v.7.1 starts on 27Dec2022 at  1:51:53 

     This program is part of the open-source Quantum ESPRESSO suite
     for quantum simulation of materials; please cite
         "P. Giannozzi et al., J. Phys.:Condens. Matter 21 395502 (2009);
         "P. Giannozzi et al., J. Phys.:Condens. Matter 29 465901 (2017);
         "P. Giannozzi et al., J. Chem. Phys. 152 154105 (2020);
          URL http://www.quantum-espresso.org", 
     in publications or presentations arising from this work. More details at
     http://www.quantum-espresso.org/quote

     Parallel version (MPI), running on    24 processors

     MPI processes distributed on     1 nodes
     105406 MiB available memory on the printing compute node when the environment starts
 
     Waiting for input...
     Reading input from standard input
Warning: card &CELL ignored
Warning: card / ignored

     Current dimensions of program PWSCF are:
     Max number of different atomic species (ntypx) = 10
     Max number of k-points (npk) =  40000
     Max angular momentum in pseudopotentials (lmaxx) =  4
 
     K-points division:     npool     =       2
     R & G space division:  proc/nbgrp/npool/nimage =      12
     Subspace diagonalization in iterative solution of the eigenvalue problem:
     a serial algorithm will be used

 
     Parallelization info
     --------------------
     sticks:   dense  smooth     PW     G-vecs:    dense   smooth      PW
     Min          72      72     21                 1429     1429     228
     Max          73      73     22                 1431     1431     232
     Sum         871     871    253                17153    17153    2741
 
     Using Slab Decomposition
 


     bravais-lattice index     =            2
     lattice parameter (alat)  =      10.3031  a.u.
     unit-cell volume          =     273.4285 (a.u.)^3
     number of atoms/cell      =            2
     number of atomic types    =            1
     number of electrons       =         8.00
     number of Kohn-Sham states=            4
     kinetic-energy cutoff     =      60.0000  Ry
     charge density cutoff     =     240.0000  Ry
     scf convergence threshold =      1.0E-06
     mixing beta               =       0.7000
     number of iterations used =            8  plain     mixing
     Exchange-correlation= PBESOL
                           (   1   4  10   8   0   0   0)

     celldm(1)=  10.303100  celldm(2)=   0.000000  celldm(3)=   0.000000
     celldm(4)=   0.000000  celldm(5)=   0.000000  celldm(6)=   0.000000

     crystal axes: (cart. coord. in units of alat)
               a(1) = (  -0.500000   0.000000   0.500000 )  
               a(2) = (   0.000000   0.500000   0.500000 )  
               a(3) = (  -0.500000   0.500000   0.000000 )  

     reciprocal axes: (cart. coord. in units 2 pi/alat)
               b(1) = ( -1.000000 -1.000000  1.000000 )  
               b(2) = (  1.000000  1.000000  1.000000 )  
               b(3) = ( -1.000000  1.000000 -1.000000 )  


     PseudoPot. # 1 for Si read from file:
     ../pseudo/Si.pbesol-n-rrkjus_psl.1.0.0.UPF
     MD5 check sum: c4212819de858c94c3a1644338846ac9
     Pseudo is Ultrasoft + core correction, Zval =  4.0
     Generated using "atomic" code by A. Dal Corso  v.6.0 svn rev. 13079
     Using radial grid of 1141 points,  6 beta functions with: 
                l(1) =   0
                l(2) =   0
                l(3) =   1
                l(4) =   1
                l(5) =   2
                l(6) =   2
     Q(r) pseudized with 0 coefficients 


     atomic species   valence    mass     pseudopotential
        Si             4.00    28.08550     Si( 1.00)

     48 Sym. Ops., with inversion, found (24 have fractional translation)



   Cartesian axes

     site n.     atom                  positions (alat units)
         1           Si  tau(   1) = (  -0.2500000   0.2500000   0.2500000  )
         2           Si  tau(   2) = (  -0.5000000   0.5000000   0.5000000  )

     number of k points=    10
                       cart. coord. in units 2pi/alat
        k(    1) = (  -0.1250000   0.1250000   0.1250000), wk =   0.0625000
        k(    2) = (  -0.3750000   0.3750000  -0.1250000), wk =   0.1875000
        k(    3) = (   0.3750000  -0.3750000   0.6250000), wk =   0.1875000
        k(    4) = (   0.1250000  -0.1250000   0.3750000), wk =   0.1875000
        k(    5) = (  -0.1250000   0.6250000   0.1250000), wk =   0.1875000
        k(    6) = (   0.6250000  -0.1250000   0.8750000), wk =   0.3750000
        k(    7) = (   0.3750000   0.1250000   0.6250000), wk =   0.3750000
        k(    8) = (  -0.1250000  -0.8750000   0.1250000), wk =   0.1875000
        k(    9) = (  -0.3750000   0.3750000   0.3750000), wk =   0.0625000
        k(   10) = (   0.3750000  -0.3750000   1.1250000), wk =   0.1875000

     Dense  grid:    17153 G-vectors     FFT dimensions: (  36,  36,  36)

     Estimated max dynamical RAM per process >       4.33 MB

     Estimated total dynamical RAM >      99.75 MB

     Initial potential from superposition of free atoms

     starting charge       7.9989, renormalised to       8.0000
     Starting wfcs are    8 randomized atomic wfcs

     total cpu time spent up to now is        0.3 secs

     Self-consistent Calculation

     iteration #  1     ecut=    60.00 Ry     beta= 0.70
     Davidson diagonalization with overlap
     ethr =  1.00E-02,  avg # of iterations =  2.0

     Threshold (ethr) on eigenvalues was too large:
     Diagonalizing with lowered threshold

     Davidson diagonalization with overlap
     ethr =  5.92E-04,  avg # of iterations =  1.5

     total cpu time spent up to now is        0.3 secs

     total energy              =     -22.67475835 Ry
     estimated scf accuracy    <       0.05159187 Ry

     iteration #  2     ecut=    60.00 Ry     beta= 0.70
     Davidson diagonalization with overlap
     ethr =  6.45E-04,  avg # of iterations =  1.0

     total cpu time spent up to now is        0.3 secs

     total energy              =     -22.67667655 Ry
     estimated scf accuracy    <       0.00242119 Ry

     iteration #  3     ecut=    60.00 Ry     beta= 0.70
     Davidson diagonalization with overlap
     ethr =  3.03E-05,  avg # of iterations =  3.0

     total cpu time spent up to now is        0.3 secs

     total energy              =     -22.67753975 Ry
     estimated scf accuracy    <       0.00012743 Ry

     iteration #  4     ecut=    60.00 Ry     beta= 0.70
     Davidson diagonalization with overlap
     ethr =  1.59E-06,  avg # of iterations =  4.0

     total cpu time spent up to now is        0.3 secs

     total energy              =     -22.67759599 Ry
     estimated scf accuracy    <       0.00002669 Ry

     iteration #  5     ecut=    60.00 Ry     beta= 0.70
     Davidson diagonalization with overlap
     ethr =  3.34E-07,  avg # of iterations =  2.6

     total cpu time spent up to now is        0.3 secs

     End of self-consistent calculation

          k =-0.1250 0.1250 0.1250 (  2124 PWs)   bands (ev):

    -5.6699   4.4257   5.7465   5.7465

          k =-0.3750 0.3750-0.1250 (  2147 PWs)   bands (ev):

    -4.6307   1.4100   3.7181   5.2647

          k = 0.3750-0.3750 0.6250 (  2142 PWs)   bands (ev):

    -3.4687  -0.7029   3.7486   4.4780

          k = 0.1250-0.1250 0.3750 (  2129 PWs)   bands (ev):

    -5.1361   2.8044   4.7185   4.7857

          k =-0.1250 0.6250 0.1250 (  2133 PWs)   bands (ev):

    -4.0929   1.0985   3.3615   3.8328

          k = 0.6250-0.1250 0.8750 (  2155 PWs)   bands (ev):

    -2.4268  -0.8784   1.9701   3.0745

          k = 0.3750 0.1250 0.6250 (  2149 PWs)   bands (ev):

    -3.6692   0.2024   2.7084   4.1064

          k =-0.1250-0.8750 0.1250 (  2152 PWs)   bands (ev):

    -2.6031  -0.7769   2.5988   3.3605

          k =-0.3750 0.3750 0.3750 (  2132 PWs)   bands (ev):

    -4.1897   0.0939   4.9527   4.9527

          k = 0.3750-0.3750 1.1250 (  2151 PWs)   bands (ev):

    -2.9681  -0.5924   2.0369   4.1544

     highest occupied level (ev):     5.7465

!    total energy              =     -22.67760274 Ry
     estimated scf accuracy    <       0.00000025 Ry

     The total energy is the sum of the following terms:
     one-electron contribution =       5.08627001 Ry
     hartree contribution      =       1.09053734 Ry
     xc contribution           =     -12.12376227 Ry
     ewald contribution        =     -16.73064781 Ry

     convergence has been achieved in   5 iterations

     Writing all to output data dir ./out/Si.save/
 
     init_run     :      0.08s CPU      0.15s WALL (       1 calls)
     electrons    :      0.11s CPU      0.12s WALL (       1 calls)

     Called by init_run:
     wfcinit      :      0.01s CPU      0.01s WALL (       1 calls)
     potinit      :      0.02s CPU      0.02s WALL (       1 calls)
     hinit0       :      0.05s CPU      0.11s WALL (       1 calls)

     Called by electrons:
     c_bands      :      0.05s CPU      0.06s WALL (       6 calls)
     sum_band     :      0.02s CPU      0.02s WALL (       6 calls)
     v_of_rho     :      0.01s CPU      0.01s WALL (       6 calls)
     newd         :      0.01s CPU      0.01s WALL (       6 calls)
     mix_rho      :      0.00s CPU      0.00s WALL (       6 calls)

     Called by c_bands:
     init_us_2    :      0.00s CPU      0.00s WALL (      65 calls)
     init_us_2:cp :      0.00s CPU      0.00s WALL (      65 calls)
     cegterg      :      0.03s CPU      0.04s WALL (      30 calls)

     Called by *egterg:
     cdiaghg      :      0.00s CPU      0.00s WALL (      97 calls)
     h_psi        :      0.03s CPU      0.03s WALL (     107 calls)
     s_psi        :      0.00s CPU      0.00s WALL (     107 calls)
     g_psi        :      0.00s CPU      0.00s WALL (      72 calls)

     Called by h_psi:
     h_psi:calbec :      0.00s CPU      0.00s WALL (     107 calls)
     vloc_psi     :      0.03s CPU      0.03s WALL (     107 calls)
     add_vuspsi   :      0.00s CPU      0.00s WALL (     107 calls)

     General routines
     calbec       :      0.00s CPU      0.00s WALL (     137 calls)
     fft          :      0.03s CPU      0.09s WALL (      67 calls)
     ffts         :      0.00s CPU      0.00s WALL (       6 calls)
     fftw         :      0.03s CPU      0.03s WALL (     892 calls)
 
     Parallel routines
 
     PWSCF        :      0.28s CPU      0.43s WALL

 
   This run was terminated on:   1:51:54  27Dec2022            

=------------------------------------------------------------------------------=
   JOB DONE.
=------------------------------------------------------------------------------=
