
     Program PWSCF v.7.1 starts on 27Dec2022 at  1:52:12 

     This program is part of the open-source Quantum ESPRESSO suite
     for quantum simulation of materials; please cite
         "P. Giannozzi et al., J. Phys.:Condens. Matter 21 395502 (2009);
         "P. Giannozzi et al., J. Phys.:Condens. Matter 29 465901 (2017);
         "P. Giannozzi et al., J. Chem. Phys. 152 154105 (2020);
          URL http://www.quantum-espresso.org", 
     in publications or presentations arising from this work. More details at
     http://www.quantum-espresso.org/quote

     Parallel version (MPI), running on    24 processors

     MPI processes distributed on     1 nodes
     105375 MiB available memory on the printing compute node when the environment starts
 
     Waiting for input...
     Reading input from standard input
Warning: card &CELL ignored
Warning: card / ignored

     Current dimensions of program PWSCF are:
     Max number of different atomic species (ntypx) = 10
     Max number of k-points (npk) =  40000
     Max angular momentum in pseudopotentials (lmaxx) =  4
 
     K-points division:     npool     =       2
     R & G space division:  proc/nbgrp/npool/nimage =      12
     Subspace diagonalization in iterative solution of the eigenvalue problem:
     a serial algorithm will be used

 
     Parallelization info
     --------------------
     sticks:   dense  smooth     PW     G-vecs:    dense   smooth      PW
     Min          76      76     22                 1512     1512     247
     Max          77      77     23                 1516     1516     249
     Sum         913     913    271                18149    18149    2975
 
     Using Slab Decomposition
 


     bravais-lattice index     =            2
     lattice parameter (alat)  =      10.4831  a.u.
     unit-cell volume          =     288.0111 (a.u.)^3
     number of atoms/cell      =            2
     number of atomic types    =            1
     number of electrons       =         8.00
     number of Kohn-Sham states=            4
     kinetic-energy cutoff     =      60.0000  Ry
     charge density cutoff     =     240.0000  Ry
     scf convergence threshold =      1.0E-06
     mixing beta               =       0.7000
     number of iterations used =            8  plain     mixing
     Exchange-correlation= PBESOL
                           (   1   4  10   8   0   0   0)

     celldm(1)=  10.483100  celldm(2)=   0.000000  celldm(3)=   0.000000
     celldm(4)=   0.000000  celldm(5)=   0.000000  celldm(6)=   0.000000

     crystal axes: (cart. coord. in units of alat)
               a(1) = (  -0.500000   0.000000   0.500000 )  
               a(2) = (   0.000000   0.500000   0.500000 )  
               a(3) = (  -0.500000   0.500000   0.000000 )  

     reciprocal axes: (cart. coord. in units 2 pi/alat)
               b(1) = ( -1.000000 -1.000000  1.000000 )  
               b(2) = (  1.000000  1.000000  1.000000 )  
               b(3) = ( -1.000000  1.000000 -1.000000 )  


     PseudoPot. # 1 for Si read from file:
     ../pseudo/Si.pbesol-n-rrkjus_psl.1.0.0.UPF
     MD5 check sum: c4212819de858c94c3a1644338846ac9
     Pseudo is Ultrasoft + core correction, Zval =  4.0
     Generated using "atomic" code by A. Dal Corso  v.6.0 svn rev. 13079
     Using radial grid of 1141 points,  6 beta functions with: 
                l(1) =   0
                l(2) =   0
                l(3) =   1
                l(4) =   1
                l(5) =   2
                l(6) =   2
     Q(r) pseudized with 0 coefficients 


     atomic species   valence    mass     pseudopotential
        Si             4.00    28.08550     Si( 1.00)

     48 Sym. Ops., with inversion, found (24 have fractional translation)



   Cartesian axes

     site n.     atom                  positions (alat units)
         1           Si  tau(   1) = (  -0.2500000   0.2500000   0.2500000  )
         2           Si  tau(   2) = (  -0.5000000   0.5000000   0.5000000  )

     number of k points=    10
                       cart. coord. in units 2pi/alat
        k(    1) = (  -0.1250000   0.1250000   0.1250000), wk =   0.0625000
        k(    2) = (  -0.3750000   0.3750000  -0.1250000), wk =   0.1875000
        k(    3) = (   0.3750000  -0.3750000   0.6250000), wk =   0.1875000
        k(    4) = (   0.1250000  -0.1250000   0.3750000), wk =   0.1875000
        k(    5) = (  -0.1250000   0.6250000   0.1250000), wk =   0.1875000
        k(    6) = (   0.6250000  -0.1250000   0.8750000), wk =   0.3750000
        k(    7) = (   0.3750000   0.1250000   0.6250000), wk =   0.3750000
        k(    8) = (  -0.1250000  -0.8750000   0.1250000), wk =   0.1875000
        k(    9) = (  -0.3750000   0.3750000   0.3750000), wk =   0.0625000
        k(   10) = (   0.3750000  -0.3750000   1.1250000), wk =   0.1875000

     Dense  grid:    18149 G-vectors     FFT dimensions: (  40,  40,  40)

     Estimated max dynamical RAM per process >       4.67 MB

     Estimated total dynamical RAM >     107.53 MB

     Initial potential from superposition of free atoms

     starting charge       7.9989, renormalised to       8.0000
     Starting wfcs are    8 randomized atomic wfcs

     total cpu time spent up to now is        0.3 secs

     Self-consistent Calculation

     iteration #  1     ecut=    60.00 Ry     beta= 0.70
     Davidson diagonalization with overlap
     ethr =  1.00E-02,  avg # of iterations =  2.0

     Threshold (ethr) on eigenvalues was too large:
     Diagonalizing with lowered threshold

     Davidson diagonalization with overlap
     ethr =  5.37E-04,  avg # of iterations =  1.8

     total cpu time spent up to now is        0.3 secs

     total energy              =     -22.67220655 Ry
     estimated scf accuracy    <       0.04703411 Ry

     iteration #  2     ecut=    60.00 Ry     beta= 0.70
     Davidson diagonalization with overlap
     ethr =  5.88E-04,  avg # of iterations =  1.0

     total cpu time spent up to now is        0.3 secs

     total energy              =     -22.67371235 Ry
     estimated scf accuracy    <       0.00239106 Ry

     iteration #  3     ecut=    60.00 Ry     beta= 0.70
     Davidson diagonalization with overlap
     ethr =  2.99E-05,  avg # of iterations =  2.9

     total cpu time spent up to now is        0.3 secs

     total energy              =     -22.67443070 Ry
     estimated scf accuracy    <       0.00010953 Ry

     iteration #  4     ecut=    60.00 Ry     beta= 0.70
     Davidson diagonalization with overlap
     ethr =  1.37E-06,  avg # of iterations =  4.1

     total cpu time spent up to now is        0.4 secs

     total energy              =     -22.67448049 Ry
     estimated scf accuracy    <       0.00002625 Ry

     iteration #  5     ecut=    60.00 Ry     beta= 0.70
     Davidson diagonalization with overlap
     ethr =  3.28E-07,  avg # of iterations =  2.2

     total cpu time spent up to now is        0.4 secs

     End of self-consistent calculation

          k =-0.1250 0.1250 0.1250 (  2235 PWs)   bands (ev):

    -5.8574   3.9097   5.2358   5.2358

          k =-0.3750 0.3750-0.1250 (  2251 PWs)   bands (ev):

    -4.8666   0.9806   3.2943   4.7672

          k = 0.3750-0.3750 0.6250 (  2266 PWs)   bands (ev):

    -3.7741  -1.0207   3.3001   4.0218

          k = 0.1250-0.1250 0.3750 (  2246 PWs)   bands (ev):

    -5.3475   2.3121   4.2612   4.2985

          k =-0.1250 0.6250 0.1250 (  2265 PWs)   bands (ev):

    -4.3517   0.6246   2.9661   3.4143

          k = 0.6250-0.1250 0.8750 (  2258 PWs)   bands (ev):

    -2.7752  -1.2771   1.6606   2.7071

          k = 0.3750 0.1250 0.6250 (  2264 PWs)   bands (ev):

    -3.9533  -0.2038   2.3338   3.6769

          k =-0.1250-0.8750 0.1250 (  2264 PWs)   bands (ev):

    -2.9313  -1.1867   2.2538   2.9615

          k =-0.3750 0.3750 0.3750 (  2253 PWs)   bands (ev):

    -4.4511  -0.2566   4.4700   4.4700

          k = 0.3750-0.3750 1.1250 (  2262 PWs)   bands (ev):

    -3.2950  -0.9646   1.7051   3.7159

     highest occupied level (ev):     5.2358

!    total energy              =     -22.67448609 Ry
     estimated scf accuracy    <       0.00000007 Ry

     The total energy is the sum of the following terms:
     one-electron contribution =       4.69258871 Ry
     hartree contribution      =       1.13655826 Ry
     xc contribution           =     -12.06025872 Ry
     ewald contribution        =     -16.44337433 Ry

     convergence has been achieved in   5 iterations

     Writing all to output data dir ./out/Si.save/
 
     init_run     :      0.06s CPU      0.15s WALL (       1 calls)
     electrons    :      0.11s CPU      0.13s WALL (       1 calls)

     Called by init_run:
     wfcinit      :      0.01s CPU      0.01s WALL (       1 calls)
     potinit      :      0.00s CPU      0.00s WALL (       1 calls)
     hinit0       :      0.04s CPU      0.12s WALL (       1 calls)

     Called by electrons:
     c_bands      :      0.06s CPU      0.06s WALL (       6 calls)
     sum_band     :      0.02s CPU      0.03s WALL (       6 calls)
     v_of_rho     :      0.01s CPU      0.01s WALL (       6 calls)
     newd         :      0.01s CPU      0.01s WALL (       6 calls)
     mix_rho      :      0.00s CPU      0.00s WALL (       6 calls)

     Called by c_bands:
     init_us_2    :      0.00s CPU      0.00s WALL (      65 calls)
     init_us_2:cp :      0.00s CPU      0.00s WALL (      65 calls)
     cegterg      :      0.04s CPU      0.05s WALL (      30 calls)

     Called by *egterg:
     cdiaghg      :      0.00s CPU      0.00s WALL (      97 calls)
     h_psi        :      0.04s CPU      0.04s WALL (     107 calls)
     s_psi        :      0.00s CPU      0.00s WALL (     107 calls)
     g_psi        :      0.00s CPU      0.00s WALL (      72 calls)

     Called by h_psi:
     h_psi:calbec :      0.00s CPU      0.00s WALL (     107 calls)
     vloc_psi     :      0.03s CPU      0.04s WALL (     107 calls)
     add_vuspsi   :      0.00s CPU      0.00s WALL (     107 calls)

     General routines
     calbec       :      0.00s CPU      0.00s WALL (     137 calls)
     fft          :      0.01s CPU      0.10s WALL (      67 calls)
     ffts         :      0.00s CPU      0.00s WALL (       6 calls)
     fftw         :      0.03s CPU      0.04s WALL (     894 calls)
 
     Parallel routines
 
     PWSCF        :      0.29s CPU      0.46s WALL

 
   This run was terminated on:   1:52:12  27Dec2022            

=------------------------------------------------------------------------------=
   JOB DONE.
=------------------------------------------------------------------------------=
