
     Program PWSCF v.7.1 starts on 27Dec2022 at  1:51:49 

     This program is part of the open-source Quantum ESPRESSO suite
     for quantum simulation of materials; please cite
         "P. Giannozzi et al., J. Phys.:Condens. Matter 21 395502 (2009);
         "P. Giannozzi et al., J. Phys.:Condens. Matter 29 465901 (2017);
         "P. Giannozzi et al., J. Chem. Phys. 152 154105 (2020);
          URL http://www.quantum-espresso.org", 
     in publications or presentations arising from this work. More details at
     http://www.quantum-espresso.org/quote

     Parallel version (MPI), running on    24 processors

     MPI processes distributed on     1 nodes
     105384 MiB available memory on the printing compute node when the environment starts
 
     Waiting for input...
     Reading input from standard input
Warning: card &CELL ignored
Warning: card / ignored

     Current dimensions of program PWSCF are:
     Max number of different atomic species (ntypx) = 10
     Max number of k-points (npk) =  40000
     Max angular momentum in pseudopotentials (lmaxx) =  4
 
     K-points division:     npool     =       2
     R & G space division:  proc/nbgrp/npool/nimage =      12
     Subspace diagonalization in iterative solution of the eigenvalue problem:
     a serial algorithm will be used

 
     Parallelization info
     --------------------
     sticks:   dense  smooth     PW     G-vecs:    dense   smooth      PW
     Min          71      71     21                 1407     1407     228
     Max          72      72     22                 1410     1410     232
     Sum         859     859    253                16889    16889    2741
 
     Using Slab Decomposition
 


     bravais-lattice index     =            2
     lattice parameter (alat)  =      10.2631  a.u.
     unit-cell volume          =     270.2562 (a.u.)^3
     number of atoms/cell      =            2
     number of atomic types    =            1
     number of electrons       =         8.00
     number of Kohn-Sham states=            4
     kinetic-energy cutoff     =      60.0000  Ry
     charge density cutoff     =     240.0000  Ry
     scf convergence threshold =      1.0E-06
     mixing beta               =       0.7000
     number of iterations used =            8  plain     mixing
     Exchange-correlation= PBESOL
                           (   1   4  10   8   0   0   0)

     celldm(1)=  10.263100  celldm(2)=   0.000000  celldm(3)=   0.000000
     celldm(4)=   0.000000  celldm(5)=   0.000000  celldm(6)=   0.000000

     crystal axes: (cart. coord. in units of alat)
               a(1) = (  -0.500000   0.000000   0.500000 )  
               a(2) = (   0.000000   0.500000   0.500000 )  
               a(3) = (  -0.500000   0.500000   0.000000 )  

     reciprocal axes: (cart. coord. in units 2 pi/alat)
               b(1) = ( -1.000000 -1.000000  1.000000 )  
               b(2) = (  1.000000  1.000000  1.000000 )  
               b(3) = ( -1.000000  1.000000 -1.000000 )  


     PseudoPot. # 1 for Si read from file:
     ../pseudo/Si.pbesol-n-rrkjus_psl.1.0.0.UPF
     MD5 check sum: c4212819de858c94c3a1644338846ac9
     Pseudo is Ultrasoft + core correction, Zval =  4.0
     Generated using "atomic" code by A. Dal Corso  v.6.0 svn rev. 13079
     Using radial grid of 1141 points,  6 beta functions with: 
                l(1) =   0
                l(2) =   0
                l(3) =   1
                l(4) =   1
                l(5) =   2
                l(6) =   2
     Q(r) pseudized with 0 coefficients 


     atomic species   valence    mass     pseudopotential
        Si             4.00    28.08550     Si( 1.00)

     48 Sym. Ops., with inversion, found (24 have fractional translation)



   Cartesian axes

     site n.     atom                  positions (alat units)
         1           Si  tau(   1) = (  -0.2500000   0.2500000   0.2500000  )
         2           Si  tau(   2) = (  -0.5000000   0.5000000   0.5000000  )

     number of k points=    10
                       cart. coord. in units 2pi/alat
        k(    1) = (  -0.1250000   0.1250000   0.1250000), wk =   0.0625000
        k(    2) = (  -0.3750000   0.3750000  -0.1250000), wk =   0.1875000
        k(    3) = (   0.3750000  -0.3750000   0.6250000), wk =   0.1875000
        k(    4) = (   0.1250000  -0.1250000   0.3750000), wk =   0.1875000
        k(    5) = (  -0.1250000   0.6250000   0.1250000), wk =   0.1875000
        k(    6) = (   0.6250000  -0.1250000   0.8750000), wk =   0.3750000
        k(    7) = (   0.3750000   0.1250000   0.6250000), wk =   0.3750000
        k(    8) = (  -0.1250000  -0.8750000   0.1250000), wk =   0.1875000
        k(    9) = (  -0.3750000   0.3750000   0.3750000), wk =   0.0625000
        k(   10) = (   0.3750000  -0.3750000   1.1250000), wk =   0.1875000

     Dense  grid:    16889 G-vectors     FFT dimensions: (  36,  36,  36)

     Estimated max dynamical RAM per process >       4.29 MB

     Estimated total dynamical RAM >      98.87 MB

     Initial potential from superposition of free atoms

     starting charge       7.9989, renormalised to       8.0000
     Starting wfcs are    8 randomized atomic wfcs

     total cpu time spent up to now is        0.3 secs

     Self-consistent Calculation

     iteration #  1     ecut=    60.00 Ry     beta= 0.70
     Davidson diagonalization with overlap
     ethr =  1.00E-02,  avg # of iterations =  2.0

     Threshold (ethr) on eigenvalues was too large:
     Diagonalizing with lowered threshold

     Davidson diagonalization with overlap
     ethr =  6.04E-04,  avg # of iterations =  1.5

     total cpu time spent up to now is        0.3 secs

     total energy              =     -22.67478557 Ry
     estimated scf accuracy    <       0.05258047 Ry

     iteration #  2     ecut=    60.00 Ry     beta= 0.70
     Davidson diagonalization with overlap
     ethr =  6.57E-04,  avg # of iterations =  1.0

     total cpu time spent up to now is        0.3 secs

     total energy              =     -22.67672307 Ry
     estimated scf accuracy    <       0.00246558 Ry

     iteration #  3     ecut=    60.00 Ry     beta= 0.70
     Davidson diagonalization with overlap
     ethr =  3.08E-05,  avg # of iterations =  3.0

     total cpu time spent up to now is        0.3 secs

     total energy              =     -22.67762835 Ry
     estimated scf accuracy    <       0.00013623 Ry

     iteration #  4     ecut=    60.00 Ry     beta= 0.70
     Davidson diagonalization with overlap
     ethr =  1.70E-06,  avg # of iterations =  3.9

     total cpu time spent up to now is        0.4 secs

     total energy              =     -22.67768721 Ry
     estimated scf accuracy    <       0.00003146 Ry

     iteration #  5     ecut=    60.00 Ry     beta= 0.70
     Davidson diagonalization with overlap
     ethr =  3.93E-07,  avg # of iterations =  2.7

     total cpu time spent up to now is        0.4 secs

     End of self-consistent calculation

          k =-0.1250 0.1250 0.1250 (  2112 PWs)   bands (ev):

    -5.6266   4.5434   5.8645   5.8645

          k =-0.3750 0.3750-0.1250 (  2117 PWs)   bands (ev):

    -4.5763   1.5080   3.8163   5.3798

          k = 0.3750-0.3750 0.6250 (  2115 PWs)   bands (ev):

    -3.3981  -0.6304   3.8525   4.5836

          k = 0.1250-0.1250 0.3750 (  2106 PWs)   bands (ev):

    -5.0873   2.9165   4.8243   4.8986

          k =-0.1250 0.6250 0.1250 (  2114 PWs)   bands (ev):

    -4.0332   1.2071   3.4531   3.9296

          k = 0.6250-0.1250 0.8750 (  2132 PWs)   bands (ev):

    -2.3464  -0.7868   2.0417   3.1594

          k = 0.3750 0.1250 0.6250 (  2117 PWs)   bands (ev):

    -3.6037   0.2952   2.7956   4.2057

          k =-0.1250-0.8750 0.1250 (  2127 PWs)   bands (ev):

    -2.5276  -0.6827   2.6785   3.4529

          k =-0.3750 0.3750 0.3750 (  2114 PWs)   bands (ev):

    -4.1295   0.1740   5.0644   5.0644

          k = 0.3750-0.3750 1.1250 (  2125 PWs)   bands (ev):

    -2.8926  -0.5075   2.1141   4.2559

     highest occupied level (ev):     5.8645

!    total energy              =     -22.67769527 Ry
     estimated scf accuracy    <       0.00000019 Ry

     The total energy is the sum of the following terms:
     one-electron contribution =       5.17610819 Ry
     hartree contribution      =       1.08050400 Ry
     xc contribution           =     -12.13845266 Ry
     ewald contribution        =     -16.79585481 Ry

     convergence has been achieved in   5 iterations

     Writing all to output data dir ./out/Si.save/
 
     init_run     :      0.11s CPU      0.16s WALL (       1 calls)
     electrons    :      0.11s CPU      0.12s WALL (       1 calls)

     Called by init_run:
     wfcinit      :      0.01s CPU      0.01s WALL (       1 calls)
     potinit      :      0.04s CPU      0.04s WALL (       1 calls)
     hinit0       :      0.06s CPU      0.10s WALL (       1 calls)

     Called by electrons:
     c_bands      :      0.07s CPU      0.07s WALL (       6 calls)
     sum_band     :      0.02s CPU      0.02s WALL (       6 calls)
     v_of_rho     :      0.01s CPU      0.01s WALL (       6 calls)
     newd         :      0.01s CPU      0.01s WALL (       6 calls)
     mix_rho      :      0.00s CPU      0.00s WALL (       6 calls)

     Called by c_bands:
     init_us_2    :      0.00s CPU      0.00s WALL (      65 calls)
     init_us_2:cp :      0.00s CPU      0.00s WALL (      65 calls)
     cegterg      :      0.03s CPU      0.04s WALL (      30 calls)

     Called by *egterg:
     cdiaghg      :      0.00s CPU      0.00s WALL (      99 calls)
     h_psi        :      0.03s CPU      0.03s WALL (     109 calls)
     s_psi        :      0.00s CPU      0.00s WALL (     109 calls)
     g_psi        :      0.00s CPU      0.00s WALL (      74 calls)

     Called by h_psi:
     h_psi:calbec :      0.00s CPU      0.00s WALL (     109 calls)
     vloc_psi     :      0.03s CPU      0.03s WALL (     109 calls)
     add_vuspsi   :      0.00s CPU      0.00s WALL (     109 calls)

     General routines
     calbec       :      0.00s CPU      0.00s WALL (     139 calls)
     fft          :      0.04s CPU      0.08s WALL (      67 calls)
     ffts         :      0.00s CPU      0.00s WALL (       6 calls)
     fftw         :      0.03s CPU      0.03s WALL (     896 calls)
 
     Parallel routines
 
     PWSCF        :      0.30s CPU      0.45s WALL

 
   This run was terminated on:   1:51:50  27Dec2022            

=------------------------------------------------------------------------------=
   JOB DONE.
=------------------------------------------------------------------------------=
