
     Program PWSCF v.7.1 starts on 18Dec2023 at 15:39:14 

     This program is part of the open-source Quantum ESPRESSO suite
     for quantum simulation of materials; please cite
         "P. Giannozzi et al., J. Phys.:Condens. Matter 21 395502 (2009);
         "P. Giannozzi et al., J. Phys.:Condens. Matter 29 465901 (2017);
         "P. Giannozzi et al., J. Chem. Phys. 152 154105 (2020);
          URL http://www.quantum-espresso.org", 
     in publications or presentations arising from this work. More details at
     http://www.quantum-espresso.org/quote

     Parallel version (MPI), running on     1 processors

     MPI processes distributed on     1 nodes
     2214 MiB available memory on the printing compute node when the environment starts
 
     Waiting for input...
     Reading input from standard input

     Current dimensions of program PWSCF are:
     Max number of different atomic species (ntypx) = 10
     Max number of k-points (npk) =  40000
     Max angular momentum in pseudopotentials (lmaxx) =  4
 
     Subspace diagonalization in iterative solution of the eigenvalue problem:
     a serial algorithm will be used

 
     G-vector sticks info
     --------------------
     sticks:   dense  smooth     PW     G-vecs:    dense   smooth      PW
     Sum        2689     889    265                91881    17573    2891
 
     Using Slab Decomposition
 


     bravais-lattice index     =            2
     lattice parameter (alat)  =      10.4000  a.u.
     unit-cell volume          =     281.2160 (a.u.)^3
     number of atoms/cell      =            2
     number of atomic types    =            1
     number of electrons       =         8.00
     number of Kohn-Sham states=            4
     kinetic-energy cutoff     =      60.0000  Ry
     charge density cutoff     =     720.0000  Ry
     scf convergence threshold =      1.0E-08
     mixing beta               =       0.7000
     number of iterations used =            8  plain     mixing
     Exchange-correlation= PBESOL
                           (   1   4  10   8   0   0   0)

     celldm(1)=  10.400000  celldm(2)=   0.000000  celldm(3)=   0.000000
     celldm(4)=   0.000000  celldm(5)=   0.000000  celldm(6)=   0.000000

     crystal axes: (cart. coord. in units of alat)
               a(1) = (  -0.500000   0.000000   0.500000 )  
               a(2) = (   0.000000   0.500000   0.500000 )  
               a(3) = (  -0.500000   0.500000   0.000000 )  

     reciprocal axes: (cart. coord. in units 2 pi/alat)
               b(1) = ( -1.000000 -1.000000  1.000000 )  
               b(2) = (  1.000000  1.000000  1.000000 )  
               b(3) = ( -1.000000  1.000000 -1.000000 )  


     PseudoPot. # 1 for Si read from file:
     ../../pseudo/Si.pbesol-n-rrkjus_psl.1.0.0.UPF
     MD5 check sum: c4212819de858c94c3a1644338846ac9
     Pseudo is Ultrasoft + core correction, Zval =  4.0
     Generated using "atomic" code by A. Dal Corso  v.6.0 svn rev. 13079
     Using radial grid of 1141 points,  6 beta functions with: 
                l(1) =   0
                l(2) =   0
                l(3) =   1
                l(4) =   1
                l(5) =   2
                l(6) =   2
     Q(r) pseudized with 0 coefficients 


     atomic species   valence    mass     pseudopotential
        Si             4.00    28.08550     Si( 1.00)

     48 Sym. Ops., with inversion, found (24 have fractional translation)



   Cartesian axes

     site n.     atom                  positions (alat units)
         1           Si  tau(   1) = (   0.0000000   0.0000000   0.0000000  )
         2           Si  tau(   2) = (   0.2500000   0.2500000   0.2500000  )

     number of k points=    10
                       cart. coord. in units 2pi/alat
        k(    1) = (  -0.1250000   0.1250000   0.1250000), wk =   0.0625000
        k(    2) = (  -0.3750000   0.3750000  -0.1250000), wk =   0.1875000
        k(    3) = (   0.3750000  -0.3750000   0.6250000), wk =   0.1875000
        k(    4) = (   0.1250000  -0.1250000   0.3750000), wk =   0.1875000
        k(    5) = (  -0.1250000   0.6250000   0.1250000), wk =   0.1875000
        k(    6) = (   0.6250000  -0.1250000   0.8750000), wk =   0.3750000
        k(    7) = (   0.3750000   0.1250000   0.6250000), wk =   0.3750000
        k(    8) = (  -0.1250000  -0.8750000   0.1250000), wk =   0.1875000
        k(    9) = (  -0.3750000   0.3750000   0.3750000), wk =   0.0625000
        k(   10) = (   0.3750000  -0.3750000   1.1250000), wk =   0.1875000

     Dense  grid:    91881 G-vectors     FFT dimensions: (  64,  64,  64)

     Smooth grid:    17573 G-vectors     FFT dimensions: (  40,  40,  40)

     Estimated max dynamical RAM per process >     324.06 MB

     Initial potential from superposition of free atoms

     starting charge       7.9989, renormalised to       8.0000
     Starting wfcs are    8 randomized atomic wfcs

     total cpu time spent up to now is        1.2 secs

     Self-consistent Calculation

     iteration #  1     ecut=    60.00 Ry     beta= 0.70
     Davidson diagonalization with overlap
     ethr =  1.00E-02,  avg # of iterations =  2.0

     Threshold (ethr) on eigenvalues was too large:
     Diagonalizing with lowered threshold

     Davidson diagonalization with overlap
     ethr =  5.61E-04,  avg # of iterations =  1.8

     total cpu time spent up to now is        3.2 secs

     total energy              =     -22.67390564 Ry
     estimated scf accuracy    <       0.04911884 Ry

     iteration #  2     ecut=    60.00 Ry     beta= 0.70
     Davidson diagonalization with overlap
     ethr =  6.14E-04,  avg # of iterations =  1.0

     total cpu time spent up to now is        4.4 secs

     total energy              =     -22.67558883 Ry
     estimated scf accuracy    <       0.00241706 Ry

     iteration #  3     ecut=    60.00 Ry     beta= 0.70
     Davidson diagonalization with overlap
     ethr =  3.02E-05,  avg # of iterations =  3.0

     total cpu time spent up to now is        5.6 secs

     total energy              =     -22.67639762 Ry
     estimated scf accuracy    <       0.00012087 Ry

     iteration #  4     ecut=    60.00 Ry     beta= 0.70
     Davidson diagonalization with overlap
     ethr =  1.51E-06,  avg # of iterations =  3.4

     total cpu time spent up to now is        7.0 secs

     total energy              =     -22.67645269 Ry
     estimated scf accuracy    <       0.00002866 Ry

     iteration #  5     ecut=    60.00 Ry     beta= 0.70
     Davidson diagonalization with overlap
     ethr =  3.58E-07,  avg # of iterations =  2.5

     total cpu time spent up to now is        8.2 secs

     total energy              =     -22.67645987 Ry
     estimated scf accuracy    <       0.00000015 Ry

     iteration #  6     ecut=    60.00 Ry     beta= 0.70
     Davidson diagonalization with overlap
     ethr =  1.86E-09,  avg # of iterations =  8.2

     total cpu time spent up to now is        9.8 secs

     total energy              =     -22.67646106 Ry
     estimated scf accuracy    <       0.00000004 Ry

     iteration #  7     ecut=    60.00 Ry     beta= 0.70
     Davidson diagonalization with overlap
     ethr =  4.46E-10,  avg # of iterations =  3.2

     total cpu time spent up to now is       11.1 secs

     total energy              =     -22.67646107 Ry
     estimated scf accuracy    <       0.00000001 Ry

     iteration #  8     ecut=    60.00 Ry     beta= 0.70
     Davidson diagonalization with overlap
     ethr =  1.63E-10,  avg # of iterations =  2.2

     total cpu time spent up to now is       12.3 secs

     End of self-consistent calculation

          k =-0.1250 0.1250 0.1250 (  2187 PWs)   bands (ev):

    -5.7740   4.1432   5.4654   5.4654

          k =-0.3750 0.3750-0.1250 (  2199 PWs)   bands (ev):

    -4.7612   1.1747   3.4846   4.9907

          k = 0.3750-0.3750 0.6250 (  2206 PWs)   bands (ev):

    -3.6374  -0.8772   3.5015   4.2268

          k = 0.1250-0.1250 0.3750 (  2201 PWs)   bands (ev):

    -5.2533   2.5349   4.4668   4.5173

          k =-0.1250 0.6250 0.1250 (  2204 PWs)   bands (ev):

    -4.2359   0.8383   3.1437   3.6023

          k = 0.6250-0.1250 0.8750 (  2214 PWs)   bands (ev):

    -2.6189  -1.0977   1.7995   2.8723

          k = 0.3750 0.1250 0.6250 (  2207 PWs)   bands (ev):

    -3.8261  -0.0204   2.5018   3.8700

          k =-0.1250-0.8750 0.1250 (  2205 PWs)   bands (ev):

    -2.7841  -1.0024   2.4088   3.1406

          k =-0.3750 0.3750 0.3750 (  2208 PWs)   bands (ev):

    -4.3342  -0.0984   4.6868   4.6868

          k = 0.3750-0.3750 1.1250 (  2220 PWs)   bands (ev):

    -3.1486  -0.7966   1.8538   3.9129

     highest occupied level (ev):     5.4654

!    total energy              =     -22.67646107 Ry
     estimated scf accuracy    <          1.9E-09 Ry

     The total energy is the sum of the following terms:
     one-electron contribution =       4.87230859 Ry
     hartree contribution      =       1.11499715 Ry
     xc contribution           =     -12.08900359 Ry
     ewald contribution        =     -16.57476321 Ry

     convergence has been achieved in   8 iterations

     Writing all to output data dir ./out/Si.save/
 
     init_run     :      0.89s CPU      1.13s WALL (       1 calls)
     electrons    :      7.79s CPU     11.11s WALL (       1 calls)

     Called by init_run:
     wfcinit      :      0.15s CPU      0.15s WALL (       1 calls)
     potinit      :      0.15s CPU      0.18s WALL (       1 calls)
     hinit0       :      0.35s CPU      0.37s WALL (       1 calls)

     Called by electrons:
     c_bands      :      2.79s CPU      2.82s WALL (       9 calls)
     sum_band     :      2.59s CPU      4.52s WALL (       9 calls)
     v_of_rho     :      0.97s CPU      1.01s WALL (       9 calls)
     newd         :      1.61s CPU      3.12s WALL (       9 calls)
     mix_rho      :      0.06s CPU      0.06s WALL (       9 calls)

     Called by c_bands:
     init_us_2    :      0.13s CPU      0.13s WALL (     190 calls)
     init_us_2:cp :      0.13s CPU      0.13s WALL (     190 calls)
     cegterg      :      2.14s CPU      2.16s WALL (      90 calls)

     Called by *egterg:
     cdiaghg      :      0.03s CPU      0.03s WALL (     353 calls)
     h_psi        :      2.04s CPU      2.06s WALL (     373 calls)
     s_psi        :      0.08s CPU      0.08s WALL (     373 calls)
     g_psi        :      0.01s CPU      0.01s WALL (     273 calls)

     Called by h_psi:
     h_psi:calbec :      0.08s CPU      0.08s WALL (     373 calls)
     vloc_psi     :      1.87s CPU      1.88s WALL (     373 calls)
     add_vuspsi   :      0.08s CPU      0.08s WALL (     373 calls)

     General routines
     calbec       :      0.10s CPU      0.10s WALL (     463 calls)
     fft          :      0.28s CPU      0.28s WALL (     116 calls)
     ffts         :      0.01s CPU      0.01s WALL (      18 calls)
     fftw         :      1.40s CPU      1.41s WALL (    2952 calls)
     interpolate  :      0.04s CPU      0.04s WALL (       9 calls)
 
     Parallel routines
 
     PWSCF        :      8.76s CPU     12.34s WALL

 
   This run was terminated on:  15:39:27  18Dec2023            

=------------------------------------------------------------------------------=
   JOB DONE.
=------------------------------------------------------------------------------=
