
     Program PWSCF v.7.1 starts on 18Dec2023 at 15:38:39 

     This program is part of the open-source Quantum ESPRESSO suite
     for quantum simulation of materials; please cite
         "P. Giannozzi et al., J. Phys.:Condens. Matter 21 395502 (2009);
         "P. Giannozzi et al., J. Phys.:Condens. Matter 29 465901 (2017);
         "P. Giannozzi et al., J. Chem. Phys. 152 154105 (2020);
          URL http://www.quantum-espresso.org", 
     in publications or presentations arising from this work. More details at
     http://www.quantum-espresso.org/quote

     Parallel version (MPI), running on     1 processors

     MPI processes distributed on     1 nodes
     2228 MiB available memory on the printing compute node when the environment starts
 
     Waiting for input...
     Reading input from standard input

     Current dimensions of program PWSCF are:
     Max number of different atomic species (ntypx) = 10
     Max number of k-points (npk) =  40000
     Max angular momentum in pseudopotentials (lmaxx) =  4
 
     Subspace diagonalization in iterative solution of the eigenvalue problem:
     a serial algorithm will be used

 
     G-vector sticks info
     --------------------
     sticks:   dense  smooth     PW     G-vecs:    dense   smooth      PW
     Sum        2527     847    253                84283    16361    2733
 
     Using Slab Decomposition
 


     bravais-lattice index     =            2
     lattice parameter (alat)  =      10.1000  a.u.
     unit-cell volume          =     257.5752 (a.u.)^3
     number of atoms/cell      =            2
     number of atomic types    =            1
     number of electrons       =         8.00
     number of Kohn-Sham states=            4
     kinetic-energy cutoff     =      60.0000  Ry
     charge density cutoff     =     720.0000  Ry
     scf convergence threshold =      1.0E-08
     mixing beta               =       0.7000
     number of iterations used =            8  plain     mixing
     Exchange-correlation= PBESOL
                           (   1   4  10   8   0   0   0)

     celldm(1)=  10.100000  celldm(2)=   0.000000  celldm(3)=   0.000000
     celldm(4)=   0.000000  celldm(5)=   0.000000  celldm(6)=   0.000000

     crystal axes: (cart. coord. in units of alat)
               a(1) = (  -0.500000   0.000000   0.500000 )  
               a(2) = (   0.000000   0.500000   0.500000 )  
               a(3) = (  -0.500000   0.500000   0.000000 )  

     reciprocal axes: (cart. coord. in units 2 pi/alat)
               b(1) = ( -1.000000 -1.000000  1.000000 )  
               b(2) = (  1.000000  1.000000  1.000000 )  
               b(3) = ( -1.000000  1.000000 -1.000000 )  


     PseudoPot. # 1 for Si read from file:
     ../../pseudo/Si.pbesol-n-rrkjus_psl.1.0.0.UPF
     MD5 check sum: c4212819de858c94c3a1644338846ac9
     Pseudo is Ultrasoft + core correction, Zval =  4.0
     Generated using "atomic" code by A. Dal Corso  v.6.0 svn rev. 13079
     Using radial grid of 1141 points,  6 beta functions with: 
                l(1) =   0
                l(2) =   0
                l(3) =   1
                l(4) =   1
                l(5) =   2
                l(6) =   2
     Q(r) pseudized with 0 coefficients 


     atomic species   valence    mass     pseudopotential
        Si             4.00    28.08550     Si( 1.00)

     48 Sym. Ops., with inversion, found (24 have fractional translation)



   Cartesian axes

     site n.     atom                  positions (alat units)
         1           Si  tau(   1) = (   0.0000000   0.0000000   0.0000000  )
         2           Si  tau(   2) = (   0.2500000   0.2500000   0.2500000  )

     number of k points=    10
                       cart. coord. in units 2pi/alat
        k(    1) = (  -0.1250000   0.1250000   0.1250000), wk =   0.0625000
        k(    2) = (  -0.3750000   0.3750000  -0.1250000), wk =   0.1875000
        k(    3) = (   0.3750000  -0.3750000   0.6250000), wk =   0.1875000
        k(    4) = (   0.1250000  -0.1250000   0.3750000), wk =   0.1875000
        k(    5) = (  -0.1250000   0.6250000   0.1250000), wk =   0.1875000
        k(    6) = (   0.6250000  -0.1250000   0.8750000), wk =   0.3750000
        k(    7) = (   0.3750000   0.1250000   0.6250000), wk =   0.3750000
        k(    8) = (  -0.1250000  -0.8750000   0.1250000), wk =   0.1875000
        k(    9) = (  -0.3750000   0.3750000   0.3750000), wk =   0.0625000
        k(   10) = (   0.3750000  -0.3750000   1.1250000), wk =   0.1875000

     Dense  grid:    84283 G-vectors     FFT dimensions: (  64,  64,  64)

     Smooth grid:    16361 G-vectors     FFT dimensions: (  36,  36,  36)

     Estimated max dynamical RAM per process >     298.93 MB

     Initial potential from superposition of free atoms

     starting charge       7.9989, renormalised to       8.0000
     Starting wfcs are    8 randomized atomic wfcs

     total cpu time spent up to now is        1.1 secs

     Self-consistent Calculation

     iteration #  1     ecut=    60.00 Ry     beta= 0.70
     Davidson diagonalization with overlap
     ethr =  1.00E-02,  avg # of iterations =  2.0

     Threshold (ethr) on eigenvalues was too large:
     Diagonalizing with lowered threshold

     Davidson diagonalization with overlap
     ethr =  6.56E-04,  avg # of iterations =  1.5

     total cpu time spent up to now is        2.8 secs

     total energy              =     -22.67203735 Ry
     estimated scf accuracy    <       0.05705256 Ry

     iteration #  2     ecut=    60.00 Ry     beta= 0.70
     Davidson diagonalization with overlap
     ethr =  7.13E-04,  avg # of iterations =  1.0

     total cpu time spent up to now is        3.9 secs

     total energy              =     -22.67439122 Ry
     estimated scf accuracy    <       0.00249646 Ry

     iteration #  3     ecut=    60.00 Ry     beta= 0.70
     Davidson diagonalization with overlap
     ethr =  3.12E-05,  avg # of iterations =  3.0

     total cpu time spent up to now is        5.0 secs

     total energy              =     -22.67546397 Ry
     estimated scf accuracy    <       0.00016504 Ry

     iteration #  4     ecut=    60.00 Ry     beta= 0.70
     Davidson diagonalization with overlap
     ethr =  2.06E-06,  avg # of iterations =  3.5

     total cpu time spent up to now is        6.1 secs

     total energy              =     -22.67551990 Ry
     estimated scf accuracy    <       0.00004465 Ry

     iteration #  5     ecut=    60.00 Ry     beta= 0.70
     Davidson diagonalization with overlap
     ethr =  5.58E-07,  avg # of iterations =  2.6

     total cpu time spent up to now is        7.2 secs

     total energy              =     -22.67552979 Ry
     estimated scf accuracy    <       0.00000012 Ry

     iteration #  6     ecut=    60.00 Ry     beta= 0.70
     Davidson diagonalization with overlap
     ethr =  1.52E-09,  avg # of iterations =  8.5

     total cpu time spent up to now is        8.6 secs

     End of self-consistent calculation

          k =-0.1250 0.1250 0.1250 (  2016 PWs)   bands (ev):

    -5.4445   5.0345   6.3619   6.3619

          k =-0.3750 0.3750-0.1250 (  2012 PWs)   bands (ev):

    -4.3478   1.9166   4.2316   5.8659

          k = 0.3750-0.3750 0.6250 (  2015 PWs)   bands (ev):

    -3.1013  -0.3288   4.2919   5.0293

          k = 0.1250-0.1250 0.3750 (  2020 PWs)   bands (ev):

    -4.8824   3.3837   5.2701   5.3765

          k =-0.1250 0.6250 0.1250 (  2021 PWs)   bands (ev):

    -3.7828   1.6617   3.8405   4.3384

          k = 0.6250-0.1250 0.8750 (  2024 PWs)   bands (ev):

    -2.0084  -0.4027   2.3445   3.5171

          k = 0.3750 0.1250 0.6250 (  2021 PWs)   bands (ev):

    -3.3288   0.6821   3.1650   4.6245

          k =-0.1250-0.8750 0.1250 (  2029 PWs)   bands (ev):

    -2.2105  -0.2869   3.0150   3.8432

          k =-0.3750 0.3750 0.3750 (  2024 PWs)   bands (ev):

    -3.8763   0.5088   5.5361   5.5361

          k = 0.3750-0.3750 1.1250 (  2018 PWs)   bands (ev):

    -2.5751  -0.1537   2.4416   4.6842

     highest occupied level (ev):     6.3619

!    total energy              =     -22.67553114 Ry
     estimated scf accuracy    <          1.8E-09 Ry

     The total energy is the sum of the following terms:
     one-electron contribution =       5.55252682 Ry
     hartree contribution      =       1.03897476 Ry
     xc contribution           =     -12.19994982 Ry
     ewald contribution        =     -17.06708291 Ry

     convergence has been achieved in   6 iterations

     Writing all to output data dir ./out/Si.save/
 
     init_run     :      0.81s CPU      1.03s WALL (       1 calls)
     electrons    :      5.12s CPU      7.44s WALL (       1 calls)

     Called by init_run:
     wfcinit      :      0.11s CPU      0.11s WALL (       1 calls)
     potinit      :      0.14s CPU      0.18s WALL (       1 calls)
     hinit0       :      0.34s CPU      0.37s WALL (       1 calls)

     Called by electrons:
     c_bands      :      1.71s CPU      1.73s WALL (       7 calls)
     sum_band     :      1.72s CPU      3.10s WALL (       7 calls)
     v_of_rho     :      0.75s CPU      0.80s WALL (       7 calls)
     newd         :      1.14s CPU      2.18s WALL (       7 calls)
     mix_rho      :      0.04s CPU      0.04s WALL (       7 calls)

     Called by c_bands:
     init_us_2    :      0.09s CPU      0.09s WALL (     150 calls)
     init_us_2:cp :      0.09s CPU      0.09s WALL (     150 calls)
     cegterg      :      1.24s CPU      1.26s WALL (      70 calls)

     Called by *egterg:
     cdiaghg      :      0.02s CPU      0.02s WALL (     281 calls)
     h_psi        :      1.17s CPU      1.19s WALL (     301 calls)
     s_psi        :      0.05s CPU      0.05s WALL (     301 calls)
     g_psi        :      0.01s CPU      0.01s WALL (     221 calls)

     Called by h_psi:
     h_psi:calbec :      0.06s CPU      0.06s WALL (     301 calls)
     vloc_psi     :      1.05s CPU      1.06s WALL (     301 calls)
     add_vuspsi   :      0.06s CPU      0.06s WALL (     301 calls)

     General routines
     calbec       :      0.07s CPU      0.08s WALL (     371 calls)
     fft          :      0.21s CPU      0.22s WALL (      90 calls)
     ffts         :      0.00s CPU      0.00s WALL (      14 calls)
     fftw         :      0.67s CPU      0.68s WALL (    2378 calls)
     interpolate  :      0.02s CPU      0.03s WALL (       7 calls)
 
     Parallel routines
 
     PWSCF        :      6.02s CPU      8.61s WALL

 
   This run was terminated on:  15:38:48  18Dec2023            

=------------------------------------------------------------------------------=
   JOB DONE.
=------------------------------------------------------------------------------=
