
     Program PWSCF v.7.1 starts on 18Dec2023 at 15:39: 2 

     This program is part of the open-source Quantum ESPRESSO suite
     for quantum simulation of materials; please cite
         "P. Giannozzi et al., J. Phys.:Condens. Matter 21 395502 (2009);
         "P. Giannozzi et al., J. Phys.:Condens. Matter 29 465901 (2017);
         "P. Giannozzi et al., J. Chem. Phys. 152 154105 (2020);
          URL http://www.quantum-espresso.org", 
     in publications or presentations arising from this work. More details at
     http://www.quantum-espresso.org/quote

     Parallel version (MPI), running on     1 processors

     MPI processes distributed on     1 nodes
     2230 MiB available memory on the printing compute node when the environment starts
 
     Waiting for input...
     Reading input from standard input

     Current dimensions of program PWSCF are:
     Max number of different atomic species (ntypx) = 10
     Max number of k-points (npk) =  40000
     Max angular momentum in pseudopotentials (lmaxx) =  4
 
     Subspace diagonalization in iterative solution of the eigenvalue problem:
     a serial algorithm will be used

 
     G-vector sticks info
     --------------------
     sticks:   dense  smooth     PW     G-vecs:    dense   smooth      PW
     Sum        2635     871    253                89115    17153    2741
 
     Using Slab Decomposition
 


     bravais-lattice index     =            2
     lattice parameter (alat)  =      10.3000  a.u.
     unit-cell volume          =     273.1818 (a.u.)^3
     number of atoms/cell      =            2
     number of atomic types    =            1
     number of electrons       =         8.00
     number of Kohn-Sham states=            4
     kinetic-energy cutoff     =      60.0000  Ry
     charge density cutoff     =     720.0000  Ry
     scf convergence threshold =      1.0E-08
     mixing beta               =       0.7000
     number of iterations used =            8  plain     mixing
     Exchange-correlation= PBESOL
                           (   1   4  10   8   0   0   0)

     celldm(1)=  10.300000  celldm(2)=   0.000000  celldm(3)=   0.000000
     celldm(4)=   0.000000  celldm(5)=   0.000000  celldm(6)=   0.000000

     crystal axes: (cart. coord. in units of alat)
               a(1) = (  -0.500000   0.000000   0.500000 )  
               a(2) = (   0.000000   0.500000   0.500000 )  
               a(3) = (  -0.500000   0.500000   0.000000 )  

     reciprocal axes: (cart. coord. in units 2 pi/alat)
               b(1) = ( -1.000000 -1.000000  1.000000 )  
               b(2) = (  1.000000  1.000000  1.000000 )  
               b(3) = ( -1.000000  1.000000 -1.000000 )  


     PseudoPot. # 1 for Si read from file:
     ../../pseudo/Si.pbesol-n-rrkjus_psl.1.0.0.UPF
     MD5 check sum: c4212819de858c94c3a1644338846ac9
     Pseudo is Ultrasoft + core correction, Zval =  4.0
     Generated using "atomic" code by A. Dal Corso  v.6.0 svn rev. 13079
     Using radial grid of 1141 points,  6 beta functions with: 
                l(1) =   0
                l(2) =   0
                l(3) =   1
                l(4) =   1
                l(5) =   2
                l(6) =   2
     Q(r) pseudized with 0 coefficients 


     atomic species   valence    mass     pseudopotential
        Si             4.00    28.08550     Si( 1.00)

     48 Sym. Ops., with inversion, found (24 have fractional translation)



   Cartesian axes

     site n.     atom                  positions (alat units)
         1           Si  tau(   1) = (   0.0000000   0.0000000   0.0000000  )
         2           Si  tau(   2) = (   0.2500000   0.2500000   0.2500000  )

     number of k points=    10
                       cart. coord. in units 2pi/alat
        k(    1) = (  -0.1250000   0.1250000   0.1250000), wk =   0.0625000
        k(    2) = (  -0.3750000   0.3750000  -0.1250000), wk =   0.1875000
        k(    3) = (   0.3750000  -0.3750000   0.6250000), wk =   0.1875000
        k(    4) = (   0.1250000  -0.1250000   0.3750000), wk =   0.1875000
        k(    5) = (  -0.1250000   0.6250000   0.1250000), wk =   0.1875000
        k(    6) = (   0.6250000  -0.1250000   0.8750000), wk =   0.3750000
        k(    7) = (   0.3750000   0.1250000   0.6250000), wk =   0.3750000
        k(    8) = (  -0.1250000  -0.8750000   0.1250000), wk =   0.1875000
        k(    9) = (  -0.3750000   0.3750000   0.3750000), wk =   0.0625000
        k(   10) = (   0.3750000  -0.3750000   1.1250000), wk =   0.1875000

     Dense  grid:    89115 G-vectors     FFT dimensions: (  64,  64,  64)

     Smooth grid:    17153 G-vectors     FFT dimensions: (  36,  36,  36)

     Estimated max dynamical RAM per process >     314.91 MB

     Initial potential from superposition of free atoms

     starting charge       7.9989, renormalised to       8.0000
     Starting wfcs are    8 randomized atomic wfcs

     total cpu time spent up to now is        1.1 secs

     Self-consistent Calculation

     iteration #  1     ecut=    60.00 Ry     beta= 0.70
     Davidson diagonalization with overlap
     ethr =  1.00E-02,  avg # of iterations =  2.0

     Threshold (ethr) on eigenvalues was too large:
     Diagonalizing with lowered threshold

     Davidson diagonalization with overlap
     ethr =  5.93E-04,  avg # of iterations =  1.5

     total cpu time spent up to now is        2.9 secs

     total energy              =     -22.67474539 Ry
     estimated scf accuracy    <       0.05160547 Ry

     iteration #  2     ecut=    60.00 Ry     beta= 0.70
     Davidson diagonalization with overlap
     ethr =  6.45E-04,  avg # of iterations =  1.0

     total cpu time spent up to now is        4.0 secs

     total energy              =     -22.67670526 Ry
     estimated scf accuracy    <       0.00241415 Ry

     iteration #  3     ecut=    60.00 Ry     beta= 0.70
     Davidson diagonalization with overlap
     ethr =  3.02E-05,  avg # of iterations =  3.1

     total cpu time spent up to now is        5.2 secs

     total energy              =     -22.67756778 Ry
     estimated scf accuracy    <       0.00012701 Ry

     iteration #  4     ecut=    60.00 Ry     beta= 0.70
     Davidson diagonalization with overlap
     ethr =  1.59E-06,  avg # of iterations =  3.9

     total cpu time spent up to now is        6.4 secs

     total energy              =     -22.67762111 Ry
     estimated scf accuracy    <       0.00002880 Ry

     iteration #  5     ecut=    60.00 Ry     beta= 0.70
     Davidson diagonalization with overlap
     ethr =  3.60E-07,  avg # of iterations =  3.0

     total cpu time spent up to now is        7.6 secs

     total energy              =     -22.67762938 Ry
     estimated scf accuracy    <       0.00000027 Ry

     iteration #  6     ecut=    60.00 Ry     beta= 0.70
     Davidson diagonalization with overlap
     ethr =  3.36E-09,  avg # of iterations =  6.6

     total cpu time spent up to now is        8.8 secs

     End of self-consistent calculation

          k =-0.1250 0.1250 0.1250 (  2124 PWs)   bands (ev):

    -5.6684   4.4326   5.7533   5.7533

          k =-0.3750 0.3750-0.1250 (  2141 PWs)   bands (ev):

    -4.6284   1.4156   3.7239   5.2713

          k = 0.3750-0.3750 0.6250 (  2142 PWs)   bands (ev):

    -3.4653  -0.6990   3.7546   4.4841

          k = 0.1250-0.1250 0.3750 (  2129 PWs)   bands (ev):

    -5.1342   2.8109   4.7247   4.7923

          k =-0.1250 0.6250 0.1250 (  2133 PWs)   bands (ev):

    -4.0902   1.1046   3.3668   3.8383

          k = 0.6250-0.1250 0.8750 (  2155 PWs)   bands (ev):

    -2.4227  -0.8735   1.9742   3.0794

          k = 0.3750 0.1250 0.6250 (  2143 PWs)   bands (ev):

    -3.6661   0.2075   2.7135   4.1122

          k =-0.1250-0.8750 0.1250 (  2146 PWs)   bands (ev):

    -2.5993  -0.7718   2.6034   3.3658

          k =-0.3750 0.3750 0.3750 (  2132 PWs)   bands (ev):

    -4.1870   0.0983   4.9591   4.9591

          k = 0.3750-0.3750 1.1250 (  2145 PWs)   bands (ev):

    -2.9644  -0.5878   2.0413   4.1602

     highest occupied level (ev):     5.7533

!    total energy              =     -22.67763009 Ry
     estimated scf accuracy    <          4.2E-09 Ry

     The total energy is the sum of the following terms:
     one-electron contribution =       5.09326248 Ry
     hartree contribution      =       1.08965083 Ry
     xc contribution           =     -12.12486016 Ry
     ewald contribution        =     -16.73568324 Ry

     convergence has been achieved in   6 iterations

     Writing all to output data dir ./out/Si.save/
 
     init_run     :      0.83s CPU      1.06s WALL (       1 calls)
     electrons    :      5.24s CPU      7.70s WALL (       1 calls)

     Called by init_run:
     wfcinit      :      0.11s CPU      0.12s WALL (       1 calls)
     potinit      :      0.15s CPU      0.18s WALL (       1 calls)
     hinit0       :      0.35s CPU      0.37s WALL (       1 calls)

     Called by electrons:
     c_bands      :      1.66s CPU      1.67s WALL (       7 calls)
     sum_band     :      1.77s CPU      3.27s WALL (       7 calls)
     v_of_rho     :      0.76s CPU      0.81s WALL (       7 calls)
     newd         :      1.25s CPU      2.32s WALL (       7 calls)
     mix_rho      :      0.05s CPU      0.05s WALL (       7 calls)

     Called by c_bands:
     init_us_2    :      0.10s CPU      0.10s WALL (     150 calls)
     init_us_2:cp :      0.10s CPU      0.10s WALL (     150 calls)
     cegterg      :      1.16s CPU      1.17s WALL (      70 calls)

     Called by *egterg:
     cdiaghg      :      0.02s CPU      0.02s WALL (     271 calls)
     h_psi        :      1.09s CPU      1.10s WALL (     291 calls)
     s_psi        :      0.06s CPU      0.06s WALL (     291 calls)
     g_psi        :      0.01s CPU      0.01s WALL (     211 calls)

     Called by h_psi:
     h_psi:calbec :      0.06s CPU      0.06s WALL (     291 calls)
     vloc_psi     :      0.97s CPU      0.97s WALL (     291 calls)
     add_vuspsi   :      0.06s CPU      0.06s WALL (     291 calls)

     General routines
     calbec       :      0.07s CPU      0.08s WALL (     361 calls)
     fft          :      0.24s CPU      0.24s WALL (      90 calls)
     ffts         :      0.00s CPU      0.00s WALL (      14 calls)
     fftw         :      0.62s CPU      0.63s WALL (    2240 calls)
     interpolate  :      0.03s CPU      0.03s WALL (       7 calls)
 
     Parallel routines
 
     PWSCF        :      6.15s CPU      8.86s WALL

 
   This run was terminated on:  15:39:11  18Dec2023            

=------------------------------------------------------------------------------=
   JOB DONE.
=------------------------------------------------------------------------------=
