
     Program PWSCF v.6.5 starts on 24Dec2022 at 17:19:33 

     This program is part of the open-source Quantum ESPRESSO suite
     for quantum simulation of materials; please cite
         "P. Giannozzi et al., J. Phys.:Condens. Matter 21 395502 (2009);
         "P. Giannozzi et al., J. Phys.:Condens. Matter 29 465901 (2017);
          URL http://www.quantum-espresso.org", 
     in publications or presentations arising from this work. More details at
     http://www.quantum-espresso.org/quote

     Parallel version (MPI), running on     1 processors

     MPI processes distributed on     1 nodes
     Waiting for input...
     Reading input from standard input
Warning: card &IONS ignored
Warning: card / ignored
Warning: card &CELL ignored
Warning: card / ignored

     Current dimensions of program PWSCF are:
     Max number of different atomic species (ntypx) = 10
     Max number of k-points (npk) =  40000
     Max angular momentum in pseudopotentials (lmaxx) =  3

     Atomic positions and unit cell read from directory:
     ./out/Si.save/                                                                                                                                                                                                                                                  
 

     Subspace diagonalization in iterative solution of the eigenvalue problem:
     a serial algorithm will be used

     Message from routine setup:
     using ibrav=0 with symmetry is DISCOURAGED, use correct ibrav instead
 
     G-vector sticks info
     --------------------
     sticks:   dense  smooth     PW     G-vecs:    dense   smooth      PW
     Sum         877     877    265                17261    17261    2837
 


     bravais-lattice index     =            0
     lattice parameter (alat)  =       7.3075  a.u.
     unit-cell volume          =     275.9279 (a.u.)^3
     number of atoms/cell      =            2
     number of atomic types    =            1
     number of electrons       =         8.00
     number of Kohn-Sham states=            8
     kinetic-energy cutoff     =      60.0000  Ry
     charge density cutoff     =     240.0000  Ry
     Exchange-correlation= PBESOL
                           (   1   4  10   8   0   0   0)

     celldm(1)=   7.307523  celldm(2)=   0.000000  celldm(3)=   0.000000
     celldm(4)=   0.000000  celldm(5)=   0.000000  celldm(6)=   0.000000

     crystal axes: (cart. coord. in units of alat)
               a(1) = (  -0.707107  -0.707107   0.000000 )  
               a(2) = (  -0.707107   0.000000  -0.707107 )  
               a(3) = (   0.000000  -0.707107  -0.707107 )  

     reciprocal axes: (cart. coord. in units 2 pi/alat)
               b(1) = ( -0.707107 -0.707107  0.707107 )  
               b(2) = ( -0.707107  0.707107 -0.707107 )  
               b(3) = (  0.707107 -0.707107 -0.707107 )  


     PseudoPot. # 1 for Si read from file:
     ../pseudo/Si.pbesol-n-rrkjus_psl.1.0.0.UPF
     MD5 check sum: c4212819de858c94c3a1644338846ac9
     Pseudo is Ultrasoft + core correction, Zval =  4.0
     Generated using "atomic" code by A. Dal Corso v.6.0 svn rev. 13079
     Using radial grid of 1141 points,  6 beta functions with: 
                l(1) =   0
                l(2) =   0
                l(3) =   1
                l(4) =   1
                l(5) =   2
                l(6) =   2
     Q(r) pseudized with 0 coefficients 


     atomic species   valence    mass     pseudopotential
        Si             4.00    28.08550     Si( 1.00)

     48 Sym. Ops., with inversion, found (24 have fractional translation)



   Cartesian axes

     site n.     atom                  positions (alat units)
         1           Si  tau(   1) = (  -0.3535534  -0.3535534  -0.3535534  )
         2           Si  tau(   2) = (  -0.7071068  -0.7071068  -0.7071068  )

     number of k points=    20 (tetrahedron method)
                       cart. coord. in units 2pi/alat
        k(    1) = (   0.0000000   0.0000000   0.0000000), wk =   0.0058309
        k(    2) = (   0.1010153  -0.1010153  -0.1010153), wk =   0.0466472
        k(    3) = (   0.2020305  -0.2020305  -0.2020305), wk =   0.0466472
        k(    4) = (   0.3030458  -0.3030458  -0.3030458), wk =   0.0466472
        k(    5) = (   0.0000000   0.0000000  -0.2020305), wk =   0.0349854
        k(    6) = (   0.1010153  -0.1010153  -0.3030458), wk =   0.1399417
        k(    7) = (   0.2020305  -0.2020305  -0.4040610), wk =   0.1399417
        k(    8) = (  -0.4040610   0.4040610   0.2020305), wk =   0.1399417
        k(    9) = (  -0.3030458   0.3030458   0.1010153), wk =   0.1399417
        k(   10) = (  -0.2020305   0.2020305   0.0000000), wk =   0.0699708
        k(   11) = (   0.0000000   0.0000000  -0.4040610), wk =   0.0349854
        k(   12) = (   0.1010153  -0.1010153  -0.5050763), wk =   0.1399417
        k(   13) = (  -0.5050763   0.5050763   0.1010153), wk =   0.1399417
        k(   14) = (  -0.4040610   0.4040610   0.0000000), wk =   0.0699708
        k(   15) = (   0.0000000   0.0000000  -0.6060915), wk =   0.0349854
        k(   16) = (  -0.6060915   0.6060915   0.0000000), wk =   0.0699708
        k(   17) = (  -0.0000000  -0.2020305  -0.4040610), wk =   0.1399417
        k(   18) = (  -0.6060915   0.4040610   0.2020305), wk =   0.2798834
        k(   19) = (  -0.7071068   0.5050763   0.1010153), wk =   0.1399417
        k(   20) = (  -0.6060915   0.4040610   0.0000000), wk =   0.1399417

     Dense  grid:    17261 G-vectors     FFT dimensions: (  40,  40,  40)

     Estimated max dynamical RAM per process >      59.02 MB

     The potential is recalculated from file :
     ./out/Si.save/charge-density

     Starting wfcs are    8 randomized atomic wfcs

     Band Structure Calculation
     Davidson diagonalization with overlap

     ethr =  1.25E-08,  avg # of iterations = 13.2

     total cpu time spent up to now is        3.3 secs

     End of band structure calculation

          k = 0.0000 0.0000 0.0000 (  2109 PWs)   bands (ev):

    -5.8729   5.9832   5.9832   5.9832   8.4762   8.4762   8.4762   9.0580

          k = 0.1010-0.1010-0.1010 (  2133 PWs)   bands (ev):

    -5.6104   4.0396   5.6266   5.6266   8.2874   8.9937   8.9937  10.7760

          k = 0.2020-0.2020-0.2020 (  2154 PWs)   bands (ev):

    -4.8540   1.4407   5.1147   5.1147   7.7344   9.4410   9.4410  13.1938

          k = 0.3030-0.3030-0.3030 (  2165 PWs)   bands (ev):

    -3.8260  -0.5694   4.8291   4.8291   7.4065   9.2896   9.2896  13.5191

          k = 0.0000 0.0000-0.2020 (  2145 PWs)   bands (ev):

    -5.5216   4.3270   5.0135   5.0135   7.7789   9.8717   9.8717  10.2021

          k = 0.1010-0.1010-0.3030 (  2149 PWs)   bands (ev):

    -4.9227   2.2253   4.4228   4.4757   7.9672   9.7501  10.4395  10.6458

          k = 0.2020-0.2020-0.4041 (  2143 PWs)   bands (ev):

    -3.9264   0.0636   3.7362   4.2894   8.0171   9.6890  10.4301  11.6340

          k =-0.4041 0.4041 0.2020 (  2167 PWs)   bands (ev):

    -3.3738  -0.7920   3.3254   4.4869   8.1087   9.6009  10.0359  13.9540

          k =-0.3030 0.3030 0.1010 (  2157 PWs)   bands (ev):

    -4.2904   0.7365   3.3303   4.9980   8.5057   9.7980   9.8080  12.4533

          k =-0.2020 0.2020 0.0000 (  2145 PWs)   bands (ev):

    -5.1799   2.8397   4.0177   5.5881   8.9113   9.1980   9.4381  11.4370

          k = 0.0000 0.0000-0.4041 (  2165 PWs)   bands (ev):

    -4.4847   1.8216   3.8582   3.8582   6.8215   8.4806  12.2570  12.2570

          k = 0.1010-0.1010-0.5051 (  2162 PWs)   bands (ev):

    -3.5936   0.3374   2.8759   3.6011   7.1012   8.5768  12.4500  12.6464

          k =-0.5051 0.5051 0.1010 (  2172 PWs)   bands (ev):

    -2.6863  -0.8277   1.9252   3.7690   7.3351  10.8083  12.1498  12.1745

          k =-0.4041 0.4041 0.0000 (  2157 PWs)   bands (ev):

    -3.3288  -0.0850   1.8509   4.3147   7.9385  11.3300  11.6489  12.3981

          k = 0.0000 0.0000-0.6061 (  2160 PWs)   bands (ev):

    -2.8195  -0.6480   3.2325   3.2325   6.4619   6.9724  14.8578  14.8578

          k =-0.6061 0.6061 0.0000 (  2185 PWs)   bands (ev):

    -1.8806  -1.5955   2.3336   3.2937   6.7602   8.0207  14.6301  15.0238

          k =-0.0000-0.2020-0.4041 (  2160 PWs)   bands (ev):

    -4.1797   1.0958   2.8768   4.2012   8.4725   9.6921  10.0128  12.0081

          k =-0.6061 0.4041 0.2020 (  2186 PWs)   bands (ev):

    -3.1502  -0.4192   2.3061   3.6668   8.9468   9.3573  11.3197  12.4525

          k =-0.7071 0.5051 0.1010 (  2170 PWs)   bands (ev):

    -2.6166  -0.7324   2.3988   2.8097   8.0972   8.4574  11.9989  14.4679

          k =-0.6061 0.4041 0.0000 (  2170 PWs)   bands (ev):

    -2.1843  -1.1247   1.7608   2.9001   8.6179  10.7140  11.4885  11.6316

     the Fermi energy is     6.2080 ev

     Writing output data file ./out/Si.save/
 
     init_run     :      0.30s CPU      0.32s WALL (       1 calls)
     electrons    :      2.31s CPU      2.36s WALL (       1 calls)

     Called by init_run:
     wfcinit      :      0.00s CPU      0.00s WALL (       1 calls)
     potinit      :      0.02s CPU      0.03s WALL (       1 calls)
     hinit0       :      0.24s CPU      0.24s WALL (       1 calls)

     Called by electrons:
     c_bands      :      2.31s CPU      2.35s WALL (       1 calls)
     v_of_rho     :      0.02s CPU      0.03s WALL (       1 calls)
     newd         :      0.03s CPU      0.04s WALL (       1 calls)

     Called by c_bands:
     init_us_2    :      0.01s CPU      0.01s WALL (      20 calls)
     cegterg      :      2.01s CPU      2.04s WALL (      20 calls)

     Called by sum_band:

     Called by *egterg:
     h_psi        :      1.83s CPU      1.85s WALL (     305 calls)
     s_psi        :      0.07s CPU      0.07s WALL (     305 calls)
     g_psi        :      0.01s CPU      0.01s WALL (     265 calls)
     cdiaghg      :      0.06s CPU      0.07s WALL (     285 calls)

     Called by h_psi:
     h_psi:calbec :      0.07s CPU      0.07s WALL (     305 calls)
     vloc_psi     :      1.68s CPU      1.70s WALL (     305 calls)
     add_vuspsi   :      0.07s CPU      0.07s WALL (     305 calls)

     General routines
     calbec       :      0.07s CPU      0.07s WALL (     305 calls)
     fft          :      0.00s CPU      0.01s WALL (      12 calls)
     fftw         :      1.43s CPU      1.44s WALL (    3432 calls)
     davcio       :      0.00s CPU      0.01s WALL (      40 calls)
 
     Parallel routines
 
     PWSCF        :      3.24s CPU      3.52s WALL

 
   This run was terminated on:  17:19:37  24Dec2022            

=------------------------------------------------------------------------------=
   JOB DONE.
=------------------------------------------------------------------------------=
