
     Program PWSCF v.6.5 starts on 24Dec2022 at 17:19:23 

     This program is part of the open-source Quantum ESPRESSO suite
     for quantum simulation of materials; please cite
         "P. Giannozzi et al., J. Phys.:Condens. Matter 21 395502 (2009);
         "P. Giannozzi et al., J. Phys.:Condens. Matter 29 465901 (2017);
          URL http://www.quantum-espresso.org", 
     in publications or presentations arising from this work. More details at
     http://www.quantum-espresso.org/quote

     Parallel version (MPI), running on     1 processors

     MPI processes distributed on     1 nodes
     Waiting for input...
     Reading input from standard input
Warning: card &IONS ignored
Warning: card / ignored
Warning: card &CELL ignored
Warning: card / ignored

     Current dimensions of program PWSCF are:
     Max number of different atomic species (ntypx) = 10
     Max number of k-points (npk) =  40000
     Max angular momentum in pseudopotentials (lmaxx) =  3

     Subspace diagonalization in iterative solution of the eigenvalue problem:
     a serial algorithm will be used

     Message from routine setup:
     using ibrav=0 with symmetry is DISCOURAGED, use correct ibrav instead
 
     G-vector sticks info
     --------------------
     sticks:   dense  smooth     PW     G-vecs:    dense   smooth      PW
     Sum         877     877    253                17261    17261    2741
 


     bravais-lattice index     =            0
     lattice parameter (alat)  =       7.3075  a.u.
     unit-cell volume          =     275.9279 (a.u.)^3
     number of atoms/cell      =            2
     number of atomic types    =            1
     number of electrons       =         8.00
     number of Kohn-Sham states=            4
     kinetic-energy cutoff     =      60.0000  Ry
     charge density cutoff     =     240.0000  Ry
     convergence threshold     =      1.0E-06
     mixing beta               =       0.7000
     number of iterations used =            8  plain     mixing
     Exchange-correlation= PBESOL
                           (   1   4  10   8   0   0   0)

     celldm(1)=   7.307523  celldm(2)=   0.000000  celldm(3)=   0.000000
     celldm(4)=   0.000000  celldm(5)=   0.000000  celldm(6)=   0.000000

     crystal axes: (cart. coord. in units of alat)
               a(1) = (  -0.707107  -0.707107   0.000000 )  
               a(2) = (  -0.707107   0.000000  -0.707107 )  
               a(3) = (   0.000000  -0.707107  -0.707107 )  

     reciprocal axes: (cart. coord. in units 2 pi/alat)
               b(1) = ( -0.707107 -0.707107  0.707107 )  
               b(2) = ( -0.707107  0.707107 -0.707107 )  
               b(3) = (  0.707107 -0.707107 -0.707107 )  


     PseudoPot. # 1 for Si read from file:
     ../pseudo/Si.pbesol-n-rrkjus_psl.1.0.0.UPF
     MD5 check sum: c4212819de858c94c3a1644338846ac9
     Pseudo is Ultrasoft + core correction, Zval =  4.0
     Generated using "atomic" code by A. Dal Corso v.6.0 svn rev. 13079
     Using radial grid of 1141 points,  6 beta functions with: 
                l(1) =   0
                l(2) =   0
                l(3) =   1
                l(4) =   1
                l(5) =   2
                l(6) =   2
     Q(r) pseudized with 0 coefficients 


     atomic species   valence    mass     pseudopotential
        Si             4.00    28.08550     Si( 1.00)

     48 Sym. Ops., with inversion, found (24 have fractional translation)



   Cartesian axes

     site n.     atom                  positions (alat units)
         1           Si  tau(   1) = (  -0.3535534  -0.3535534  -0.3535534  )
         2           Si  tau(   2) = (  -0.7071068  -0.7071068  -0.7071068  )

     number of k points=     8
                       cart. coord. in units 2pi/alat
        k(    1) = (   0.0000000   0.0000000   0.0000000), wk =   0.0312500
        k(    2) = (   0.1767767  -0.1767767  -0.1767767), wk =   0.2500000
        k(    3) = (  -0.3535534   0.3535534   0.3535534), wk =   0.1250000
        k(    4) = (   0.0000000   0.0000000  -0.3535534), wk =   0.1875000
        k(    5) = (  -0.5303301   0.5303301   0.1767767), wk =   0.7500000
        k(    6) = (  -0.3535534   0.3535534   0.0000000), wk =   0.3750000
        k(    7) = (   0.0000000   0.0000000   0.7071068), wk =   0.0937500
        k(    8) = (   0.0000000  -0.3535534   0.7071068), wk =   0.1875000

     Dense  grid:    17261 G-vectors     FFT dimensions: (  40,  40,  40)

     Estimated max dynamical RAM per process >      64.91 MB

     Initial potential from superposition of free atoms

     starting charge    7.99892, renormalised to    8.00000
     Starting wfcs are    8 randomized atomic wfcs

     total cpu time spent up to now is        1.0 secs

     Self-consistent Calculation

     iteration #  1     ecut=    60.00 Ry     beta= 0.70
     Davidson diagonalization with overlap
     ethr =  1.00E-02,  avg # of iterations =  2.0

     Threshold (ethr) on eigenvalues was too large:
     Diagonalizing with lowered threshold

     Davidson diagonalization with overlap
     ethr =  7.14E-04,  avg # of iterations =  1.6

     total cpu time spent up to now is        1.5 secs

     total energy              =     -22.66034271 Ry
     Harris-Foulkes estimate   =     -22.67866072 Ry
     estimated scf accuracy    <       0.05771919 Ry

     iteration #  2     ecut=    60.00 Ry     beta= 0.70
     Davidson diagonalization with overlap
     ethr =  7.21E-04,  avg # of iterations =  1.0

     total cpu time spent up to now is        1.7 secs

     total energy              =     -22.66268257 Ry
     Harris-Foulkes estimate   =     -22.66310566 Ry
     estimated scf accuracy    <       0.00241299 Ry

     iteration #  3     ecut=    60.00 Ry     beta= 0.70
     Davidson diagonalization with overlap
     ethr =  3.02E-05,  avg # of iterations =  2.6

     total cpu time spent up to now is        2.0 secs

     total energy              =     -22.66327070 Ry
     Harris-Foulkes estimate   =     -22.66333185 Ry
     estimated scf accuracy    <       0.00011736 Ry

     iteration #  4     ecut=    60.00 Ry     beta= 0.70
     Davidson diagonalization with overlap
     ethr =  1.47E-06,  avg # of iterations =  2.2

     total cpu time spent up to now is        2.3 secs

     total energy              =     -22.66329627 Ry
     Harris-Foulkes estimate   =     -22.66331415 Ry
     estimated scf accuracy    <       0.00003407 Ry

     iteration #  5     ecut=    60.00 Ry     beta= 0.70
     Davidson diagonalization with overlap
     ethr =  4.26E-07,  avg # of iterations =  2.0

     total cpu time spent up to now is        2.6 secs

     End of self-consistent calculation

          k = 0.0000 0.0000 0.0000 (  2109 PWs)   bands (ev):

    -5.8717   5.9848   5.9848   5.9848

          k = 0.1768-0.1768-0.1768 (  2160 PWs)   bands (ev):

    -5.0830   2.0619   5.2287   5.2287

          k =-0.3536 0.3536 0.3536 (  2138 PWs)   bands (ev):

    -3.5721  -0.9458   4.7943   4.7943

          k = 0.0000 0.0000-0.3536 (  2181 PWs)   bands (ev):

    -4.8047   2.4573   4.1064   4.1064

          k =-0.5303 0.5303 0.1768 (  2166 PWs)   bands (ev):

    -3.1911  -0.3684   2.4607   3.7952

          k =-0.3536 0.3536 0.0000 (  2151 PWs)   bands (ev):

    -3.8560   0.5225   2.2451   4.6654

          k = 0.0000 0.0000 0.7071 (  2200 PWs)   bands (ev):

    -1.7847  -1.7847   3.1540   3.1540

          k = 0.0000-0.3536 0.7071 (  2180 PWs)   bands (ev):

    -1.6230  -1.6230   2.1496   2.1496

     highest occupied level (ev):     5.9848

!    total energy              =     -22.66330106 Ry
     Harris-Foulkes estimate   =     -22.66330114 Ry
     estimated scf accuracy    <       0.00000020 Ry

     The total energy is the sum of the following terms:

     one-electron contribution =       5.01790477 Ry
     hartree contribution      =       1.12172901 Ry
     xc contribution           =     -12.12295659 Ry
     ewald contribution        =     -16.67997825 Ry

     convergence has been achieved in   5 iterations

     Writing output data file ./out/Si.save/
 
     init_run     :      0.35s CPU      0.38s WALL (       1 calls)
     electrons    :      1.39s CPU      1.70s WALL (       1 calls)

     Called by init_run:
     wfcinit      :      0.08s CPU      0.09s WALL (       1 calls)
     potinit      :      0.02s CPU      0.03s WALL (       1 calls)
     hinit0       :      0.21s CPU      0.21s WALL (       1 calls)

     Called by electrons:
     c_bands      :      0.82s CPU      0.83s WALL (       6 calls)
     sum_band     :      0.34s CPU      0.51s WALL (       6 calls)
     v_of_rho     :      0.12s CPU      0.12s WALL (       6 calls)
     newd         :      0.15s CPU      0.28s WALL (       6 calls)
     mix_rho      :      0.01s CPU      0.01s WALL (       6 calls)

     Called by c_bands:
     init_us_2    :      0.07s CPU      0.07s WALL (     104 calls)
     cegterg      :      0.59s CPU      0.59s WALL (      48 calls)

     Called by sum_band:
     sum_band:bec :      0.00s CPU      0.00s WALL (      48 calls)
     addusdens    :      0.17s CPU      0.34s WALL (       6 calls)

     Called by *egterg:
     h_psi        :      0.59s CPU      0.60s WALL (     148 calls)
     s_psi        :      0.02s CPU      0.03s WALL (     148 calls)
     g_psi        :      0.00s CPU      0.00s WALL (      92 calls)
     cdiaghg      :      0.01s CPU      0.01s WALL (     132 calls)

     Called by h_psi:
     h_psi:calbec :      0.03s CPU      0.03s WALL (     148 calls)
     vloc_psi     :      0.53s CPU      0.54s WALL (     148 calls)
     add_vuspsi   :      0.03s CPU      0.03s WALL (     148 calls)

     General routines
     calbec       :      0.04s CPU      0.04s WALL (     196 calls)
     fft          :      0.03s CPU      0.03s WALL (      67 calls)
     ffts         :      0.00s CPU      0.00s WALL (       6 calls)
     fftw         :      0.53s CPU      0.53s WALL (    1324 calls)
 
     Parallel routines
 
     PWSCF        :      2.29s CPU      2.77s WALL

 
   This run was terminated on:  17:19:26  24Dec2022            

=------------------------------------------------------------------------------=
   JOB DONE.
=------------------------------------------------------------------------------=
