
     Program PWSCF v.7.1 starts on  9Dec2022 at 18:17:37 
        Git branch: develop
        Last git commit: 9ddde6fa44e0fb1c7debb78532a4b581a6ef82fd
        Last git commit date: Fri Oct 28 07:34:35 2022 +0000
        Last git commit subject: Merge branch 'fix_hubbardocc' into 'develop'

     This program is part of the open-source Quantum ESPRESSO suite
     for quantum simulation of materials; please cite
         "P. Giannozzi et al., J. Phys.:Condens. Matter 21 395502 (2009);
         "P. Giannozzi et al., J. Phys.:Condens. Matter 29 465901 (2017);
         "P. Giannozzi et al., J. Chem. Phys. 152 154105 (2020);
          URL http://www.quantum-espresso.org", 
     in publications or presentations arising from this work. More details at
     http://www.quantum-espresso.org/quote

     Parallel version (MPI), running on     1 processors

     MPI processes distributed on     1 nodes
     0 MiB available memory on the printing compute node when the environment starts

     Waiting for input...
     Reading input from standard input

     Current dimensions of program PWSCF are:
     Max number of different atomic species (ntypx) = 10
     Max number of k-points (npk) =  40000
     Max angular momentum in pseudopotentials (lmaxx) =  4

     Subspace diagonalization in iterative solution of the eigenvalue problem:
     a serial algorithm will be used


     G-vector sticks info
     --------------------
     sticks:   dense  smooth     PW     G-vecs:    dense   smooth      PW
     Sum        2839     955    283                99965    19339    3143

     Using Slab Decomposition



     bravais-lattice index     =            2
     lattice parameter (alat)  =      10.7000  a.u.
     unit-cell volume          =     306.2607 (a.u.)^3
     number of atoms/cell      =            2
     number of atomic types    =            1
     number of electrons       =         8.00
     number of Kohn-Sham states=            4
     kinetic-energy cutoff     =      60.0000  Ry
     charge density cutoff     =     720.0000  Ry
     scf convergence threshold =      1.0E-08
     mixing beta               =       0.7000
     number of iterations used =            8  plain     mixing
     Exchange-correlation= PBESOL
                           (   1   4  10   8   0   0   0)

     celldm(1)=  10.700000  celldm(2)=   0.000000  celldm(3)=   0.000000
     celldm(4)=   0.000000  celldm(5)=   0.000000  celldm(6)=   0.000000

     crystal axes: (cart. coord. in units of alat)
               a(1) = (  -0.500000   0.000000   0.500000 )  
               a(2) = (   0.000000   0.500000   0.500000 )  
               a(3) = (  -0.500000   0.500000   0.000000 )  

     reciprocal axes: (cart. coord. in units 2 pi/alat)
               b(1) = ( -1.000000 -1.000000  1.000000 )  
               b(2) = (  1.000000  1.000000  1.000000 )  
               b(3) = ( -1.000000  1.000000 -1.000000 )  


     PseudoPot. # 1 for Si read from file:
     ../pseudo/Si.pbesol-n-rrkjus_psl.1.0.0.UPF
     MD5 check sum: c4212819de858c94c3a1644338846ac9
     Pseudo is Ultrasoft + core correction, Zval =  4.0
     Generated using "atomic" code by A. Dal Corso  v.6.0 svn rev. 13079
     Using radial grid of 1141 points,  6 beta functions with: 
                l(1) =   0
                l(2) =   0
                l(3) =   1
                l(4) =   1
                l(5) =   2
                l(6) =   2
     Q(r) pseudized with 0 coefficients 


     atomic species   valence    mass     pseudopotential
        Si             4.00    28.08550     Si( 1.00)

     48 Sym. Ops., with inversion, found (24 have fractional translation)



   Cartesian axes

     site n.     atom                  positions (alat units)
         1           Si  tau(   1) = (   0.0000000   0.0000000   0.0000000  )
         2           Si  tau(   2) = (   0.2500000   0.2500000   0.2500000  )

     number of k points=    10
                       cart. coord. in units 2pi/alat
        k(    1) = (  -0.1250000   0.1250000   0.1250000), wk =   0.0625000
        k(    2) = (  -0.3750000   0.3750000  -0.1250000), wk =   0.1875000
        k(    3) = (   0.3750000  -0.3750000   0.6250000), wk =   0.1875000
        k(    4) = (   0.1250000  -0.1250000   0.3750000), wk =   0.1875000
        k(    5) = (  -0.1250000   0.6250000   0.1250000), wk =   0.1875000
        k(    6) = (   0.6250000  -0.1250000   0.8750000), wk =   0.3750000
        k(    7) = (   0.3750000   0.1250000   0.6250000), wk =   0.3750000
        k(    8) = (  -0.1250000  -0.8750000   0.1250000), wk =   0.1875000
        k(    9) = (  -0.3750000   0.3750000   0.3750000), wk =   0.0625000
        k(   10) = (   0.3750000  -0.3750000   1.1250000), wk =   0.1875000

     Dense  grid:    99965 G-vectors     FFT dimensions: (  72,  72,  72)

     Smooth grid:    19339 G-vectors     FFT dimensions: (  40,  40,  40)

     Estimated max dynamical RAM per process >     358.43 MB

     Initial potential from superposition of free atoms

     starting charge       7.9989, renormalised to       8.0000
     Starting wfcs are    8 randomized atomic wfcs

     total cpu time spent up to now is        2.1 secs

     Self-consistent Calculation

     iteration #  1     ecut=    60.00 Ry     beta= 0.70
     Davidson diagonalization with overlap
     ethr =  1.00E-02,  avg # of iterations =  2.0

     Threshold (ethr) on eigenvalues was too large:
     Diagonalizing with lowered threshold

     Davidson diagonalization with overlap
     ethr =  4.82E-04,  avg # of iterations =  2.0

     total cpu time spent up to now is        2.8 secs

     total energy              =     -22.66390027 Ry
     estimated scf accuracy    <       0.04232105 Ry

     iteration #  2     ecut=    60.00 Ry     beta= 0.70
     Davidson diagonalization with overlap
     ethr =  5.29E-04,  avg # of iterations =  1.0

     total cpu time spent up to now is        3.2 secs

     total energy              =     -22.66501986 Ry
     estimated scf accuracy    <       0.00233203 Ry

     iteration #  3     ecut=    60.00 Ry     beta= 0.70
     Davidson diagonalization with overlap
     ethr =  2.92E-05,  avg # of iterations =  2.9

     total cpu time spent up to now is        3.7 secs

     total energy              =     -22.66560077 Ry
     estimated scf accuracy    <       0.00008759 Ry

     iteration #  4     ecut=    60.00 Ry     beta= 0.70
     Davidson diagonalization with overlap
     ethr =  1.09E-06,  avg # of iterations =  3.5

     total cpu time spent up to now is        4.2 secs

     total energy              =     -22.66564632 Ry
     estimated scf accuracy    <       0.00001884 Ry

     iteration #  5     ecut=    60.00 Ry     beta= 0.70
     Davidson diagonalization with overlap
     ethr =  2.35E-07,  avg # of iterations =  3.3

     total cpu time spent up to now is        4.7 secs

     total energy              =     -22.66565246 Ry
     estimated scf accuracy    <       0.00000033 Ry

     iteration #  6     ecut=    60.00 Ry     beta= 0.70
     Davidson diagonalization with overlap
     ethr =  4.10E-09,  avg # of iterations =  5.8

     total cpu time spent up to now is        5.2 secs

     total energy              =     -22.66565306 Ry
     estimated scf accuracy    <       0.00000006 Ry

     iteration #  7     ecut=    60.00 Ry     beta= 0.70
     Davidson diagonalization with overlap
     ethr =  7.24E-10,  avg # of iterations =  3.2

     total cpu time spent up to now is        5.7 secs

     End of self-consistent calculation

          k =-0.1250 0.1250 0.1250 (  2400 PWs)   bands (ev):

    -6.0684   3.3132   4.6618   4.6618

          k =-0.3750 0.3750-0.1250 (  2409 PWs)   bands (ev):

    -5.1329   0.4861   2.8205   4.2095

          k = 0.3750-0.3750 0.6250 (  2410 PWs)   bands (ev):

    -4.1180  -1.3879   2.7990   3.5105

          k = 0.1250-0.1250 0.3750 (  2417 PWs)   bands (ev):

    -5.5859   1.7432   3.7475   3.7547

          k =-0.1250 0.6250 0.1250 (  2403 PWs)   bands (ev):

    -4.6443   0.0838   2.5239   2.9451

          k = 0.6250-0.1250 0.8750 (  2401 PWs)   bands (ev):

    -3.1684  -1.7299   1.3139   2.2941

          k = 0.3750 0.1250 0.6250 (  2404 PWs)   bands (ev):

    -4.2742  -0.6703   1.9173   3.1947

          k =-0.1250-0.8750 0.1250 (  2401 PWs)   bands (ev):

    -3.3030  -1.6512   1.8666   2.5147

          k =-0.3750 0.3750 0.3750 (  2421 PWs)   bands (ev):

    -4.7461  -0.6591   3.9293   3.9293

          k = 0.3750-0.3750 1.1250 (  2389 PWs)   bands (ev):

    -3.6634  -1.3926   1.3364   3.2244

     highest occupied level (ev):     4.6618

!    total energy              =     -22.66565307 Ry
     estimated scf accuracy    <          2.6E-09 Ry

     The total energy is the sum of the following terms:
     one-electron contribution =       4.24086382 Ry
     hartree contribution      =       1.19155363 Ry
     xc contribution           =     -11.98802029 Ry
     ewald contribution        =     -16.11005023 Ry

     convergence has been achieved in   7 iterations

     Writing all to output data dir ./out/si.save/

     init_run     :      1.85s CPU      1.91s WALL (       1 calls)
     electrons    :      3.60s CPU      3.63s WALL (       1 calls)

     Called by init_run:
     wfcinit      :      0.35s CPU      0.35s WALL (       1 calls)
     potinit      :      0.45s CPU      0.46s WALL (       1 calls)
     hinit0       :      0.91s CPU      0.92s WALL (       1 calls)

     Called by electrons:
     c_bands      :      1.18s CPU      1.19s WALL (       8 calls)
     sum_band     :      1.02s CPU      1.02s WALL (       8 calls)
     v_of_rho     :      0.90s CPU      0.92s WALL (       8 calls)
     newd         :      0.63s CPU      0.68s WALL (       8 calls)
     mix_rho      :      0.04s CPU      0.04s WALL (       8 calls)

     Called by c_bands:
     init_us_2    :      0.07s CPU      0.07s WALL (     170 calls)
     init_us_2:cp :      0.06s CPU      0.07s WALL (     170 calls)
     cegterg      :      0.99s CPU      1.00s WALL (      80 calls)

     Called by *egterg:
     cdiaghg      :      0.02s CPU      0.02s WALL (     307 calls)
     h_psi        :      1.20s CPU      1.20s WALL (     327 calls)
     s_psi        :      0.05s CPU      0.05s WALL (     327 calls)
     g_psi        :      0.00s CPU      0.00s WALL (     237 calls)

     Called by h_psi:
     h_psi:calbec :      0.05s CPU      0.05s WALL (     327 calls)
     vloc_psi     :      1.09s CPU      1.09s WALL (     327 calls)
     add_vuspsi   :      0.05s CPU      0.05s WALL (     327 calls)

     General routines
     calbec       :      0.07s CPU      0.07s WALL (     407 calls)
     fft          :      0.94s CPU      0.95s WALL (     103 calls)
     ffts         :      0.33s CPU      0.33s WALL (      16 calls)
     fftw         :      0.96s CPU      0.96s WALL (    2520 calls)
     interpolate  :      0.35s CPU      0.35s WALL (       8 calls)

     Parallel routines

     PWSCF        :      5.61s CPU      5.72s WALL


   This run was terminated on:  18:17:43   9Dec2022            

=------------------------------------------------------------------------------=
   JOB DONE.
=------------------------------------------------------------------------------=
