
     Program PHONON v.7.1 starts on 27Dec2022 at  1:31: 8 

     This program is part of the open-source Quantum ESPRESSO suite
     for quantum simulation of materials; please cite
         "P. Giannozzi et al., J. Phys.:Condens. Matter 21 395502 (2009);
         "P. Giannozzi et al., J. Phys.:Condens. Matter 29 465901 (2017);
         "P. Giannozzi et al., J. Chem. Phys. 152 154105 (2020);
          URL http://www.quantum-espresso.org", 
     in publications or presentations arising from this work. More details at
     http://www.quantum-espresso.org/quote

     Parallel version (MPI), running on     1 processors

     MPI processes distributed on     1 nodes
     9415 MiB available memory on the printing compute node when the environment starts
 
     Waiting for input...
     Reading input from standard input
      Title line not specified: using 'default'.

     Reading xml data from directory:

     ./out/Si.save/
 
     Subspace diagonalization in iterative solution of the eigenvalue problem:
     a serial algorithm will be used


     IMPORTANT: XC functional enforced from input :
     Exchange-correlation= PBESOL
                           (   1   4  10   8   0   0   0)
     Any further DFT definition will be discarded
     Please, verify this is what you really want

 
     G-vector sticks info
     --------------------
     sticks:   dense  smooth     PW     G-vecs:    dense   smooth      PW
     Sum         859     859    253                16889    16889    2741
 
     Using Slab Decomposition
 
     Reading collected, re-writing distributed wavefunctions in ./out/


     Dynamical matrices for ( 2, 2, 2)  uniform grid of q-points
     (   3 q-points):
       N         xq(1)         xq(2)         xq(3) 
       1   0.000000000   0.000000000   0.000000000
       2   0.500000000  -0.500000000   0.500000000
       3   0.000000000  -1.000000000   0.000000000

     Calculation of q =    0.0000000   0.0000000   0.0000000

     default                                                                    

     bravais-lattice index     =            2
     lattice parameter (alat)  =      10.2673  a.u.
     unit-cell volume          =     270.5905 (a.u.)^3
     number of atoms/cell      =            2
     number of atomic types    =            1
     kinetic-energy cut-off    =      60.0000  Ry
     charge density cut-off    =     240.0000  Ry
     convergence threshold     =      1.0E-14
     beta                      =       0.7000
     number of iterations used =            4
     Exchange-correlation= PBESOL
                           (   1   4  10   8   0   0   0)


     celldm(1)=   10.26733  celldm(2)=    0.00000  celldm(3)=    0.00000
     celldm(4)=    0.00000  celldm(5)=    0.00000  celldm(6)=    0.00000

     crystal axes: (cart. coord. in units of alat)
               a(1) = ( -0.5000  0.0000  0.5000 )  
               a(2) = (  0.0000  0.5000  0.5000 )  
               a(3) = ( -0.5000  0.5000  0.0000 )  

     reciprocal axes: (cart. coord. in units 2 pi/alat)
               b(1) = ( -1.0000 -1.0000  1.0000 )  
               b(2) = (  1.0000  1.0000  1.0000 )  
               b(3) = ( -1.0000  1.0000 -1.0000 )  


     Atoms inside the unit cell: 

     Cartesian axes

     site n.  atom      mass           positions (alat units)
        1     Si  28.0855   tau(    1) = (   -0.25000    0.25000    0.25000  )
        2     Si  28.0855   tau(    2) = (   -0.50000    0.50000    0.50000  )

     Computing dynamical matrix for 
                    q = (   0.0000000   0.0000000   0.0000000 )
 
     49 Sym.Ops. (with q -> -q+G )


     G cutoff =  640.8650  (  16889 G-vectors)     FFT grid: ( 36, 36, 36)
     number of k points=    10

     PseudoPot. # 1 for Si read from file:
     ../pseudo/Si.pbesol-n-rrkjus_psl.1.0.0.UPF
     MD5 check sum: c4212819de858c94c3a1644338846ac9
     Pseudo is Ultrasoft + core correction, Zval =  4.0
     Generated using "atomic" code by A. Dal Corso  v.6.0 svn rev. 13079
     Using radial grid of 1141 points,  6 beta functions with: 
                l(1) =   0
                l(2) =   0
                l(3) =   1
                l(4) =   1
                l(5) =   2
                l(6) =   2
     Q(r) pseudized with 0 coefficients 


     Mode symmetry, O_h (m-3m)  point group:


     Electric field:
     Dielectric constant
     Born effective charges in two ways 


     Atomic displacements:
     There are    2 irreducible representations

     Representation     1      3 modes -  To be done

     Representation     2      3 modes -  To be done



     Alpha used in Ewald sum =   2.5000
     PHONON       :      2.12s CPU      2.19s WALL


     Electric Fields Calculation

      iter #   1 total cpu time :     5.8 secs   av.it.:   6.4
      thresh= 1.000E-02 alpha_mix =  0.700 |ddv_scf|^2 =  1.518E-07

      iter #   2 total cpu time :     7.6 secs   av.it.:  11.1
      thresh= 3.896E-05 alpha_mix =  0.700 |ddv_scf|^2 =  6.977E-09

      iter #   3 total cpu time :     9.5 secs   av.it.:  10.9
      thresh= 8.353E-06 alpha_mix =  0.700 |ddv_scf|^2 =  2.013E-10

      iter #   4 total cpu time :    11.3 secs   av.it.:  10.8
      thresh= 1.419E-06 alpha_mix =  0.700 |ddv_scf|^2 =  1.614E-12

      iter #   5 total cpu time :    13.1 secs   av.it.:  10.6
      thresh= 1.270E-07 alpha_mix =  0.700 |ddv_scf|^2 =  6.013E-16

     End of electric fields calculation

          Dielectric constant in cartesian axis 

          (      14.375787109       0.000000000      -0.000000000 )
          (       0.000000000      14.375787109       0.000000000 )
          (      -0.000000000      -0.000000000      14.375787109 )

          Effective charges (d Force / dE) in cartesian axis without acoustic sum rule applied (asr)

           atom      1   Si Mean Z*:       -0.08585
      Ex  (       -0.08585       -0.00000        0.00000 )
      Ey  (        0.00000       -0.08585        0.00000 )
      Ez  (       -0.00000        0.00000       -0.08585 )
           atom      2   Si Mean Z*:       -0.08585
      Ex  (       -0.08585        0.00000        0.00000 )
      Ey  (        0.00000       -0.08585        0.00000 )
      Ez  (        0.00000        0.00000       -0.08585 )

          Effective charges Sum: Mean:       -0.17170
             -0.17170        0.00000        0.00000
              0.00000       -0.17170        0.00000
              0.00000        0.00000       -0.17170

          Effective charges (d Force / dE) in cartesian axis with asr applied: 
           atom      1   Si Mean Z*:       -0.00000
      E*x (       -0.00000       -0.00000        0.00000 )
      E*y (       -0.00000        0.00000        0.00000 )
      E*z (       -0.00000        0.00000       -0.00000 )
           atom      2   Si Mean Z*:        0.00000
      E*x (        0.00000        0.00000        0.00000 )
      E*y (        0.00000        0.00000       -0.00000 )
      E*z (        0.00000        0.00000        0.00000 )


     Representation #   1 modes #   1   2   3

     Self-consistent Calculation

      iter #   1 total cpu time :    16.8 secs   av.it.:   5.4
      thresh= 1.000E-02 alpha_mix =  0.700 |ddv_scf|^2 =  3.115E-08

      iter #   2 total cpu time :    18.7 secs   av.it.:  10.8
      thresh= 1.765E-05 alpha_mix =  0.700 |ddv_scf|^2 =  1.890E-09

      iter #   3 total cpu time :    20.5 secs   av.it.:  10.7
      thresh= 4.348E-06 alpha_mix =  0.700 |ddv_scf|^2 =  9.836E-11

      iter #   4 total cpu time :    22.3 secs   av.it.:  10.3
      thresh= 9.918E-07 alpha_mix =  0.700 |ddv_scf|^2 =  1.477E-13

      iter #   5 total cpu time :    24.2 secs   av.it.:  11.2
      thresh= 3.844E-08 alpha_mix =  0.700 |ddv_scf|^2 =  2.068E-15

     End of self-consistent calculation

     Convergence has been achieved 


     Representation #   2 modes #   4   5   6

     Self-consistent Calculation

      iter #   1 total cpu time :    26.2 secs   av.it.:   5.6
      thresh= 1.000E-02 alpha_mix =  0.700 |ddv_scf|^2 =  2.907E-08

      iter #   2 total cpu time :    28.1 secs   av.it.:  10.8
      thresh= 1.705E-05 alpha_mix =  0.700 |ddv_scf|^2 =  2.026E-09

      iter #   3 total cpu time :    29.9 secs   av.it.:  10.8
      thresh= 4.501E-06 alpha_mix =  0.700 |ddv_scf|^2 =  9.346E-11

      iter #   4 total cpu time :    31.8 secs   av.it.:  10.9
      thresh= 9.667E-07 alpha_mix =  0.700 |ddv_scf|^2 =  2.403E-13

      iter #   5 total cpu time :    33.7 secs   av.it.:  10.9
      thresh= 4.902E-08 alpha_mix =  0.700 |ddv_scf|^2 =  5.815E-16

     End of self-consistent calculation

     Convergence has been achieved 
 
     Number of q in the star =    1
     List of q in the star:
          1   0.000000000   0.000000000   0.000000000

          Dielectric constant in cartesian axis 

          (      14.375787109       0.000000000      -0.000000000 )
          (       0.000000000      14.375787109       0.000000000 )
          (      -0.000000000      -0.000000000      14.375787109 )

          Effective charges (d Force / dE) in cartesian axis without acoustic sum rule applied (asr)

           atom      1   Si Mean Z*:       -0.08585
      Ex  (       -0.08585       -0.00000        0.00000 )
      Ey  (        0.00000       -0.08585        0.00000 )
      Ez  (       -0.00000        0.00000       -0.08585 )
           atom      2   Si Mean Z*:       -0.08585
      Ex  (       -0.08585        0.00000        0.00000 )
      Ey  (        0.00000       -0.08585        0.00000 )
      Ez  (        0.00000        0.00000       -0.08585 )

          Effective charges Sum: Mean:       -0.17170
             -0.17170        0.00000        0.00000
              0.00000       -0.17170        0.00000
              0.00000        0.00000       -0.17170

          Effective charges (d Force / dE) in cartesian axis with asr applied: 
           atom      1   Si Mean Z*:       -0.00000
      E*x (       -0.00000       -0.00000        0.00000 )
      E*y (       -0.00000        0.00000        0.00000 )
      E*z (       -0.00000        0.00000       -0.00000 )
           atom      2   Si Mean Z*:        0.00000
      E*x (        0.00000        0.00000        0.00000 )
      E*y (        0.00000        0.00000       -0.00000 )
      E*z (        0.00000        0.00000        0.00000 )

          Effective charges (d P / du) in cartesian axis 

           atom      1   Si 
      Px  (       -0.08601        0.00000       -0.00000 )
      Py  (       -0.00000       -0.08601       -0.00000 )
      Pz  (       -0.00000        0.00000       -0.08601 )
           atom      2   Si 
      Px  (       -0.08601       -0.00000       -0.00000 )
      Py  (       -0.00000       -0.08601        0.00000 )
      Pz  (       -0.00000        0.00000       -0.08601 )

     Diagonalizing the dynamical matrix

     q = (    0.000000000   0.000000000   0.000000000 ) 

 **************************************************************************
     freq (    1) =      -0.679114 [THz] =     -22.652820 [cm-1]
     freq (    2) =      -0.679114 [THz] =     -22.652820 [cm-1]
     freq (    3) =      -0.679114 [THz] =     -22.652820 [cm-1]
     freq (    4) =      15.259323 [THz] =     508.996239 [cm-1]
     freq (    5) =      15.259323 [THz] =     508.996239 [cm-1]
     freq (    6) =      15.259323 [THz] =     508.996239 [cm-1]
 **************************************************************************

     Mode symmetry, O_h (m-3m)  point group:

     freq (   1-   3) =        -22.7  [cm-1]   --> T_1u G_15  G_4- I  
     freq (   4-   6) =        509.0  [cm-1]   --> T_2g G_25' G_5+ R  

     Calculation of q =    0.5000000  -0.5000000   0.5000000
 
     G-vector sticks info
     --------------------
     sticks:   dense  smooth     PW     G-vecs:    dense   smooth      PW
     Sum         859     859    301                16889    16889    3383
 
     Using Slab Decomposition
 

     Title: 
     default                                                                    


     bravais-lattice index     =            2
     lattice parameter (alat)  =      10.2673  a.u.
     unit-cell volume          =     270.5905 (a.u.)^3
     number of atoms/cell      =            2
     number of atomic types    =            1
     number of electrons       =         8.00
     number of Kohn-Sham states=            4
     kinetic-energy cutoff     =      60.0000  Ry
     charge density cutoff     =     240.0000  Ry
     Exchange-correlation= PBESOL
                           (   1   4  10   8   0   0   0)

     celldm(1)=  10.267330  celldm(2)=   0.000000  celldm(3)=   0.000000
     celldm(4)=   0.000000  celldm(5)=   0.000000  celldm(6)=   0.000000

     crystal axes: (cart. coord. in units of alat)
               a(1) = (  -0.500000   0.000000   0.500000 )  
               a(2) = (   0.000000   0.500000   0.500000 )  
               a(3) = (  -0.500000   0.500000   0.000000 )  

     reciprocal axes: (cart. coord. in units 2 pi/alat)
               b(1) = ( -1.000000 -1.000000  1.000000 )  
               b(2) = (  1.000000  1.000000  1.000000 )  
               b(3) = ( -1.000000  1.000000 -1.000000 )  


     PseudoPot. # 1 for Si read from file:
     ../pseudo/Si.pbesol-n-rrkjus_psl.1.0.0.UPF
     MD5 check sum: c4212819de858c94c3a1644338846ac9
     Pseudo is Ultrasoft + core correction, Zval =  4.0
     Generated using "atomic" code by A. Dal Corso  v.6.0 svn rev. 13079
     Using radial grid of 1141 points,  6 beta functions with: 
                l(1) =   0
                l(2) =   0
                l(3) =   1
                l(4) =   1
                l(5) =   2
                l(6) =   2
     Q(r) pseudized with 0 coefficients 


     atomic species   valence    mass     pseudopotential
        Si             4.00    28.08550     Si( 1.00)

     48 Sym. Ops., with inversion, found



   Cartesian axes

     site n.     atom                  positions (alat units)
         1           Si  tau(   1) = (  -0.2500000   0.2500000   0.2500000  )
         2           Si  tau(   2) = (  -0.5000000   0.5000000   0.5000000  )

     number of k points=    60
                       cart. coord. in units 2pi/alat
        k(    1) = (  -0.1250000   0.1250000   0.1250000), wk =   0.0468750
        k(    2) = (   0.3750000  -0.3750000   0.6250000), wk =   0.0000000
        k(    3) = (  -0.3750000   0.3750000  -0.1250000), wk =   0.0468750
        k(    4) = (   0.1250000  -0.1250000   0.3750000), wk =   0.0000000
        k(    5) = (   0.3750000  -0.3750000   0.6250000), wk =   0.0468750
        k(    6) = (   0.8750000  -0.8750000   1.1250000), wk =   0.0000000
        k(    7) = (   0.1250000  -0.1250000   0.3750000), wk =   0.0468750
        k(    8) = (   0.6250000  -0.6250000   0.8750000), wk =   0.0000000
        k(    9) = (  -0.1250000   0.6250000   0.1250000), wk =   0.0937500
        k(   10) = (   0.3750000   0.1250000   0.6250000), wk =   0.0000000
        k(   11) = (   0.6250000  -0.1250000   0.8750000), wk =   0.0937500
        k(   12) = (   1.1250000  -0.6250000   1.3750000), wk =   0.0000000
        k(   13) = (   0.3750000   0.1250000   0.6250000), wk =   0.0937500
        k(   14) = (   0.8750000  -0.3750000   1.1250000), wk =   0.0000000
        k(   15) = (  -0.1250000  -0.8750000   0.1250000), wk =   0.0937500
        k(   16) = (   0.3750000  -1.3750000   0.6250000), wk =   0.0000000
        k(   17) = (  -0.3750000   0.3750000   0.3750000), wk =   0.0468750
        k(   18) = (   0.1250000  -0.1250000   0.8750000), wk =   0.0000000
        k(   19) = (   0.3750000  -0.3750000   1.1250000), wk =   0.0468750
        k(   20) = (   0.8750000  -0.8750000   1.6250000), wk =   0.0000000
        k(   21) = (   0.1250000  -0.1250000   0.1250000), wk =   0.0156250
        k(   22) = (   0.6250000  -0.6250000   0.6250000), wk =   0.0000000
        k(   23) = (  -0.1250000  -0.3750000   0.3750000), wk =   0.0468750
        k(   24) = (   0.3750000  -0.8750000   0.8750000), wk =   0.0000000
        k(   25) = (   0.3750000   0.3750000   0.1250000), wk =   0.0937500
        k(   26) = (   0.8750000  -0.1250000   0.6250000), wk =   0.0000000
        k(   27) = (   0.6250000   0.3750000  -0.3750000), wk =   0.0468750
        k(   28) = (   1.1250000  -0.1250000   0.1250000), wk =   0.0000000
        k(   29) = (  -0.3750000  -0.3750000  -0.6250000), wk =   0.0937500
        k(   30) = (   0.1250000  -0.8750000  -0.1250000), wk =   0.0000000
        k(   31) = (   0.3750000   0.1250000  -0.1250000), wk =   0.0468750
        k(   32) = (   0.8750000  -0.3750000   0.3750000), wk =   0.0000000
        k(   33) = (  -0.1250000  -0.1250000  -0.3750000), wk =   0.0937500
        k(   34) = (   0.3750000  -0.6250000   0.1250000), wk =   0.0000000
        k(   35) = (   0.1250000  -0.6250000   0.1250000), wk =   0.0468750
        k(   36) = (   0.6250000  -1.1250000   0.6250000), wk =   0.0000000
        k(   37) = (   0.1250000   0.6250000   0.1250000), wk =   0.0468750
        k(   38) = (   0.6250000   0.1250000   0.6250000), wk =   0.0000000
        k(   39) = (   0.8750000   0.1250000  -0.6250000), wk =   0.0937500
        k(   40) = (   1.3750000  -0.3750000  -0.1250000), wk =   0.0000000
        k(   41) = (  -0.6250000  -0.1250000  -0.8750000), wk =   0.0937500
        k(   42) = (  -0.1250000  -0.6250000  -0.3750000), wk =   0.0000000
        k(   43) = (   0.8750000  -0.1250000  -0.6250000), wk =   0.0937500
        k(   44) = (   1.3750000  -0.6250000  -0.1250000), wk =   0.0000000
        k(   45) = (   0.6250000  -0.1250000  -0.3750000), wk =   0.0937500
        k(   46) = (   1.1250000  -0.6250000   0.1250000), wk =   0.0000000
        k(   47) = (  -0.3750000   0.1250000  -0.6250000), wk =   0.0937500
        k(   48) = (   0.1250000  -0.3750000  -0.1250000), wk =   0.0000000
        k(   49) = (   0.6250000   0.1250000  -0.3750000), wk =   0.0937500
        k(   50) = (   1.1250000  -0.3750000   0.1250000), wk =   0.0000000
        k(   51) = (   0.1250000   0.8750000   0.1250000), wk =   0.0468750
        k(   52) = (   0.6250000   0.3750000   0.6250000), wk =   0.0000000
        k(   53) = (   0.1250000  -0.8750000   0.1250000), wk =   0.0468750
        k(   54) = (   0.6250000  -1.3750000   0.6250000), wk =   0.0000000
        k(   55) = (   0.3750000  -0.3750000   0.3750000), wk =   0.0156250
        k(   56) = (   0.8750000  -0.8750000   0.8750000), wk =   0.0000000
        k(   57) = (   1.1250000   0.3750000  -0.3750000), wk =   0.0468750
        k(   58) = (   1.6250000  -0.1250000   0.1250000), wk =   0.0000000
        k(   59) = (  -0.3750000  -0.3750000  -1.1250000), wk =   0.0937500
        k(   60) = (   0.1250000  -0.8750000  -0.6250000), wk =   0.0000000

     Dense  grid:    16889 G-vectors     FFT dimensions: (  36,  36,  36)

     Estimated max dynamical RAM per process >      56.52 MB

     The potential is recalculated from file :
     ./out/_ph0/Si.save/charge-density

     Starting wfcs are    8 atomic wfcs

     Band Structure Calculation
     Davidson diagonalization with overlap

     ethr =  1.25E-10,  avg # of iterations = 13.6

     total cpu time spent up to now is        3.8 secs

     End of band structure calculation

          k =-0.1250 0.1250 0.1250 (  2112 PWs)   bands (ev):

    -5.6330   4.5287   5.8496   5.8496

          k = 0.3750-0.3750 0.6250 (  2122 PWs)   bands (ev):

    -3.4077  -0.6398   3.8395   4.5703

          k =-0.3750 0.3750-0.1250 (  2117 PWs)   bands (ev):

    -4.5840   1.4956   3.8041   5.3653

          k = 0.1250-0.1250 0.3750 (  2117 PWs)   bands (ev):

    -5.0944   2.9025   4.8110   4.8845

          k = 0.3750-0.3750 0.6250 (  2122 PWs)   bands (ev):

    -3.4077  -0.6398   3.8395   4.5703

          k = 0.8750-0.8750 1.1250 (  2112 PWs)   bands (ev):

    -5.6330   4.5287   5.8496   5.8496

          k = 0.1250-0.1250 0.3750 (  2117 PWs)   bands (ev):

    -5.0944   2.9025   4.8110   4.8845

          k = 0.6250-0.6250 0.8750 (  2117 PWs)   bands (ev):

    -4.5840   1.4956   3.8041   5.3653

          k =-0.1250 0.6250 0.1250 (  2120 PWs)   bands (ev):

    -4.0415   1.1933   3.4416   3.9174

          k = 0.3750 0.1250 0.6250 (  2117 PWs)   bands (ev):

    -3.6127   0.2833   2.7846   4.1932

          k = 0.6250-0.1250 0.8750 (  2142 PWs)   bands (ev):

    -2.3571  -0.7987   2.0327   3.1487

          k = 1.1250-0.6250 1.3750 (  2117 PWs)   bands (ev):

    -4.5840   1.4956   3.8041   5.3653

          k = 0.3750 0.1250 0.6250 (  2117 PWs)   bands (ev):

    -3.6127   0.2833   2.7846   4.1932

          k = 0.8750-0.3750 1.1250 (  2120 PWs)   bands (ev):

    -4.0415   1.1933   3.4416   3.9174

          k =-0.1250-0.8750 0.1250 (  2127 PWs)   bands (ev):

    -2.5377  -0.6949   2.6685   3.4412

          k = 0.3750-1.3750 0.6250 (  2122 PWs)   bands (ev):

    -3.4077  -0.6398   3.8395   4.5703

          k =-0.3750 0.3750 0.3750 (  2126 PWs)   bands (ev):

    -4.1378   0.1637   5.0503   5.0503

          k = 0.1250-0.1250 0.8750 (  2127 PWs)   bands (ev):

    -2.5377  -0.6949   2.6685   3.4412

          k = 0.3750-0.3750 1.1250 (  2125 PWs)   bands (ev):

    -2.9028  -0.5185   2.1044   4.2431

          k = 0.8750-0.8750 1.6250 (  2120 PWs)   bands (ev):

    -4.0415   1.1933   3.4416   3.9174

          k = 0.1250-0.1250 0.1250 (  2112 PWs)   bands (ev):

    -5.6330   4.5287   5.8496   5.8496

          k = 0.6250-0.6250 0.6250 (  2126 PWs)   bands (ev):

    -4.1378   0.1637   5.0503   5.0503

          k =-0.1250-0.3750 0.3750 (  2117 PWs)   bands (ev):

    -4.5840   1.4956   3.8041   5.3653

          k = 0.3750-0.8750 0.8750 (  2120 PWs)   bands (ev):

    -4.0415   1.1933   3.4416   3.9174

          k = 0.3750 0.3750 0.1250 (  2117 PWs)   bands (ev):

    -4.5840   1.4956   3.8041   5.3653

          k = 0.8750-0.1250 0.6250 (  2142 PWs)   bands (ev):

    -2.3571  -0.7987   2.0327   3.1487

          k = 0.6250 0.3750-0.3750 (  2122 PWs)   bands (ev):

    -3.4077  -0.6398   3.8395   4.5703

          k = 1.1250-0.1250 0.1250 (  2127 PWs)   bands (ev):

    -2.5377  -0.6949   2.6685   3.4412

          k =-0.3750-0.3750-0.6250 (  2122 PWs)   bands (ev):

    -3.4077  -0.6398   3.8395   4.5703

          k = 0.1250-0.8750-0.1250 (  2127 PWs)   bands (ev):

    -2.5377  -0.6949   2.6685   3.4412

          k = 0.3750 0.1250-0.1250 (  2117 PWs)   bands (ev):

    -5.0944   2.9025   4.8110   4.8845

          k = 0.8750-0.3750 0.3750 (  2125 PWs)   bands (ev):

    -2.9028  -0.5185   2.1044   4.2431

          k =-0.1250-0.1250-0.3750 (  2117 PWs)   bands (ev):

    -5.0944   2.9025   4.8110   4.8845

          k = 0.3750-0.6250 0.1250 (  2117 PWs)   bands (ev):

    -3.6127   0.2833   2.7846   4.1932

          k = 0.1250-0.6250 0.1250 (  2120 PWs)   bands (ev):

    -4.0415   1.1933   3.4416   3.9174

          k = 0.6250-1.1250 0.6250 (  2117 PWs)   bands (ev):

    -4.5840   1.4956   3.8041   5.3653

          k = 0.1250 0.6250 0.1250 (  2120 PWs)   bands (ev):

    -4.0415   1.1933   3.4416   3.9174

          k = 0.6250 0.1250 0.6250 (  2125 PWs)   bands (ev):

    -2.9028  -0.5185   2.1044   4.2431

          k = 0.8750 0.1250-0.6250 (  2142 PWs)   bands (ev):

    -2.3571  -0.7987   2.0327   3.1487

          k = 1.3750-0.3750-0.1250 (  2117 PWs)   bands (ev):

    -3.6127   0.2833   2.7846   4.1932

          k =-0.6250-0.1250-0.8750 (  2142 PWs)   bands (ev):

    -2.3571  -0.7987   2.0327   3.1487

          k =-0.1250-0.6250-0.3750 (  2117 PWs)   bands (ev):

    -3.6127   0.2833   2.7846   4.1932

          k = 0.8750-0.1250-0.6250 (  2142 PWs)   bands (ev):

    -2.3571  -0.7987   2.0327   3.1487

          k = 1.3750-0.6250-0.1250 (  2125 PWs)   bands (ev):

    -2.9028  -0.5185   2.1044   4.2431

          k = 0.6250-0.1250-0.3750 (  2117 PWs)   bands (ev):

    -3.6127   0.2833   2.7846   4.1932

          k = 1.1250-0.6250 0.1250 (  2142 PWs)   bands (ev):

    -2.3571  -0.7987   2.0327   3.1487

          k =-0.3750 0.1250-0.6250 (  2117 PWs)   bands (ev):

    -3.6127   0.2833   2.7846   4.1932

          k = 0.1250-0.3750-0.1250 (  2117 PWs)   bands (ev):

    -5.0944   2.9025   4.8110   4.8845

          k = 0.6250 0.1250-0.3750 (  2117 PWs)   bands (ev):

    -3.6127   0.2833   2.7846   4.1932

          k = 1.1250-0.3750 0.1250 (  2142 PWs)   bands (ev):

    -2.3571  -0.7987   2.0327   3.1487

          k = 0.1250 0.8750 0.1250 (  2127 PWs)   bands (ev):

    -2.5377  -0.6949   2.6685   3.4412

          k = 0.6250 0.3750 0.6250 (  2122 PWs)   bands (ev):

    -3.4077  -0.6398   3.8395   4.5703

          k = 0.1250-0.8750 0.1250 (  2127 PWs)   bands (ev):

    -2.5377  -0.6949   2.6685   3.4412

          k = 0.6250-1.3750 0.6250 (  2126 PWs)   bands (ev):

    -4.1378   0.1637   5.0503   5.0503

          k = 0.3750-0.3750 0.3750 (  2126 PWs)   bands (ev):

    -4.1378   0.1637   5.0503   5.0503

          k = 0.8750-0.8750 0.8750 (  2112 PWs)   bands (ev):

    -5.6330   4.5287   5.8496   5.8496

          k = 1.1250 0.3750-0.3750 (  2125 PWs)   bands (ev):

    -2.9028  -0.5185   2.1044   4.2431

          k = 1.6250-0.1250 0.1250 (  2117 PWs)   bands (ev):

    -5.0944   2.9025   4.8110   4.8845

          k =-0.3750-0.3750-1.1250 (  2125 PWs)   bands (ev):

    -2.9028  -0.5185   2.1044   4.2431

          k = 0.1250-0.8750-0.6250 (  2142 PWs)   bands (ev):

    -2.3571  -0.7987   2.0327   3.1487

     highest occupied level (ev):     5.8496

     Writing config to output data dir ./out/_ph0/Si.save/

     default                                                                    

     bravais-lattice index     =            2
     lattice parameter (alat)  =      10.2673  a.u.
     unit-cell volume          =     270.5905 (a.u.)^3
     number of atoms/cell      =            2
     number of atomic types    =            1
     kinetic-energy cut-off    =      60.0000  Ry
     charge density cut-off    =     240.0000  Ry
     convergence threshold     =      1.0E-14
     beta                      =       0.7000
     number of iterations used =            4
     Exchange-correlation= PBESOL
                           (   1   4  10   8   0   0   0)


     celldm(1)=   10.26733  celldm(2)=    0.00000  celldm(3)=    0.00000
     celldm(4)=    0.00000  celldm(5)=    0.00000  celldm(6)=    0.00000

     crystal axes: (cart. coord. in units of alat)
               a(1) = ( -0.5000  0.0000  0.5000 )  
               a(2) = (  0.0000  0.5000  0.5000 )  
               a(3) = ( -0.5000  0.5000  0.0000 )  

     reciprocal axes: (cart. coord. in units 2 pi/alat)
               b(1) = ( -1.0000 -1.0000  1.0000 )  
               b(2) = (  1.0000  1.0000  1.0000 )  
               b(3) = ( -1.0000  1.0000 -1.0000 )  


     Atoms inside the unit cell: 

     Cartesian axes

     site n.  atom      mass           positions (alat units)
        1     Si  28.0855   tau(    1) = (   -0.25000    0.25000    0.25000  )
        2     Si  28.0855   tau(    2) = (   -0.50000    0.50000    0.50000  )

     Computing dynamical matrix for 
                    q = (   0.5000000  -0.5000000   0.5000000 )
 
     13 Sym.Ops. (with q -> -q+G )


     G cutoff =  640.8650  (  16889 G-vectors)     FFT grid: ( 36, 36, 36)
     number of k points=    60

     PseudoPot. # 1 for Si read from file:
     ../pseudo/Si.pbesol-n-rrkjus_psl.1.0.0.UPF
     MD5 check sum: c4212819de858c94c3a1644338846ac9
     Pseudo is Ultrasoft + core correction, Zval =  4.0
     Generated using "atomic" code by A. Dal Corso  v.6.0 svn rev. 13079
     Using radial grid of 1141 points,  6 beta functions with: 
                l(1) =   0
                l(2) =   0
                l(3) =   1
                l(4) =   1
                l(5) =   2
                l(6) =   2
     Q(r) pseudized with 0 coefficients 



     Atomic displacements:
     There are    4 irreducible representations

     Representation     1      1 modes -  To be done

     Representation     2      1 modes -  To be done

     Representation     3      2 modes -  To be done

     Representation     4      2 modes -  To be done



     Alpha used in Ewald sum =   2.5000
     PHONON       :     39.62s CPU     40.45s WALL



     Representation #   1 mode #   1

     Self-consistent Calculation

      iter #   1 total cpu time :    41.6 secs   av.it.:   5.2
      thresh= 1.000E-02 alpha_mix =  0.700 |ddv_scf|^2 =  4.439E-06

      iter #   2 total cpu time :    43.1 secs   av.it.:   9.2
      thresh= 2.107E-04 alpha_mix =  0.700 |ddv_scf|^2 =  4.091E-06

      iter #   3 total cpu time :    44.7 secs   av.it.:   8.6
      thresh= 2.023E-04 alpha_mix =  0.700 |ddv_scf|^2 =  5.189E-09

      iter #   4 total cpu time :    46.2 secs   av.it.:   9.1
      thresh= 7.203E-06 alpha_mix =  0.700 |ddv_scf|^2 =  2.467E-11

      iter #   5 total cpu time :    47.7 secs   av.it.:   9.1
      thresh= 4.967E-07 alpha_mix =  0.700 |ddv_scf|^2 =  3.891E-13

      iter #   6 total cpu time :    49.2 secs   av.it.:   9.2
      thresh= 6.238E-08 alpha_mix =  0.700 |ddv_scf|^2 =  7.557E-15

     End of self-consistent calculation

     Convergence has been achieved 


     Representation #   2 mode #   2

     Self-consistent Calculation

      iter #   1 total cpu time :    50.6 secs   av.it.:   6.3
      thresh= 1.000E-02 alpha_mix =  0.700 |ddv_scf|^2 =  6.158E-05

      iter #   2 total cpu time :    52.1 secs   av.it.:   9.3
      thresh= 7.848E-04 alpha_mix =  0.700 |ddv_scf|^2 =  1.959E-04

      iter #   3 total cpu time :    53.6 secs   av.it.:   8.3
      thresh= 1.400E-03 alpha_mix =  0.700 |ddv_scf|^2 =  1.848E-08

      iter #   4 total cpu time :    55.1 secs   av.it.:   9.3
      thresh= 1.359E-05 alpha_mix =  0.700 |ddv_scf|^2 =  1.083E-09

      iter #   5 total cpu time :    56.6 secs   av.it.:   9.6
      thresh= 3.291E-06 alpha_mix =  0.700 |ddv_scf|^2 =  1.875E-11

      iter #   6 total cpu time :    58.2 secs   av.it.:   9.6
      thresh= 4.331E-07 alpha_mix =  0.700 |ddv_scf|^2 =  6.172E-13

      iter #   7 total cpu time :    59.7 secs   av.it.:   9.0
      thresh= 7.857E-08 alpha_mix =  0.700 |ddv_scf|^2 =  5.486E-16

     End of self-consistent calculation

     Convergence has been achieved 


     Representation #   3 modes #   3   4

     Self-consistent Calculation

      iter #   1 total cpu time :    62.0 secs   av.it.:   5.6
      thresh= 1.000E-02 alpha_mix =  0.700 |ddv_scf|^2 =  1.506E-07

      iter #   2 total cpu time :    65.2 secs   av.it.:  10.6
      thresh= 3.881E-05 alpha_mix =  0.700 |ddv_scf|^2 =  1.298E-08

      iter #   3 total cpu time :    68.3 secs   av.it.:  10.4
      thresh= 1.139E-05 alpha_mix =  0.700 |ddv_scf|^2 =  6.379E-10

      iter #   4 total cpu time :    71.4 secs   av.it.:   9.9
      thresh= 2.526E-06 alpha_mix =  0.700 |ddv_scf|^2 =  3.747E-13

      iter #   5 total cpu time :    74.6 secs   av.it.:  10.6
      thresh= 6.121E-08 alpha_mix =  0.700 |ddv_scf|^2 =  5.155E-15

     End of self-consistent calculation

     Convergence has been achieved 


     Representation #   4 modes #   5   6

     Self-consistent Calculation

      iter #   1 total cpu time :    76.8 secs   av.it.:   5.2
      thresh= 1.000E-02 alpha_mix =  0.700 |ddv_scf|^2 =  5.225E-08

      iter #   2 total cpu time :    80.0 secs   av.it.:  10.3
      thresh= 2.286E-05 alpha_mix =  0.700 |ddv_scf|^2 =  3.638E-09

      iter #   3 total cpu time :    83.0 secs   av.it.:  10.0
      thresh= 6.032E-06 alpha_mix =  0.700 |ddv_scf|^2 =  4.446E-11

      iter #   4 total cpu time :    86.1 secs   av.it.:  10.3
      thresh= 6.668E-07 alpha_mix =  0.700 |ddv_scf|^2 =  4.685E-13

      iter #   5 total cpu time :    89.3 secs   av.it.:  10.5
      thresh= 6.845E-08 alpha_mix =  0.700 |ddv_scf|^2 =  6.064E-15

     End of self-consistent calculation

     Convergence has been achieved 
 
     Number of q in the star =    4
     List of q in the star:
          1   0.500000000  -0.500000000   0.500000000
          2   0.500000000   0.500000000  -0.500000000
          3  -0.500000000  -0.500000000  -0.500000000
          4   0.500000000  -0.500000000  -0.500000000

     Diagonalizing the dynamical matrix

     q = (    0.500000000  -0.500000000   0.500000000 ) 

 **************************************************************************
     freq (    1) =       3.046488 [THz] =     101.619893 [cm-1]
     freq (    2) =       3.046488 [THz] =     101.619893 [cm-1]
     freq (    3) =      11.046275 [THz] =     368.464073 [cm-1]
     freq (    4) =      12.245366 [THz] =     408.461437 [cm-1]
     freq (    5) =      14.553097 [THz] =     485.439050 [cm-1]
     freq (    6) =      14.553097 [THz] =     485.439050 [cm-1]
 **************************************************************************

     Calculation of q =    0.0000000  -1.0000000   0.0000000
 
     G-vector sticks info
     --------------------
     sticks:   dense  smooth     PW     G-vecs:    dense   smooth      PW
     Sum         859     859    295                16889    16889    3215
 
     Using Slab Decomposition
 

     Title: 
     default                                                                    


     bravais-lattice index     =            2
     lattice parameter (alat)  =      10.2673  a.u.
     unit-cell volume          =     270.5905 (a.u.)^3
     number of atoms/cell      =            2
     number of atomic types    =            1
     number of electrons       =         8.00
     number of Kohn-Sham states=            4
     kinetic-energy cutoff     =      60.0000  Ry
     charge density cutoff     =     240.0000  Ry
     Exchange-correlation= PBESOL
                           (   1   4  10   8   0   0   0)

     celldm(1)=  10.267330  celldm(2)=   0.000000  celldm(3)=   0.000000
     celldm(4)=   0.000000  celldm(5)=   0.000000  celldm(6)=   0.000000

     crystal axes: (cart. coord. in units of alat)
               a(1) = (  -0.500000   0.000000   0.500000 )  
               a(2) = (   0.000000   0.500000   0.500000 )  
               a(3) = (  -0.500000   0.500000   0.000000 )  

     reciprocal axes: (cart. coord. in units 2 pi/alat)
               b(1) = ( -1.000000 -1.000000  1.000000 )  
               b(2) = (  1.000000  1.000000  1.000000 )  
               b(3) = ( -1.000000  1.000000 -1.000000 )  


     PseudoPot. # 1 for Si read from file:
     ../pseudo/Si.pbesol-n-rrkjus_psl.1.0.0.UPF
     MD5 check sum: c4212819de858c94c3a1644338846ac9
     Pseudo is Ultrasoft + core correction, Zval =  4.0
     Generated using "atomic" code by A. Dal Corso  v.6.0 svn rev. 13079
     Using radial grid of 1141 points,  6 beta functions with: 
                l(1) =   0
                l(2) =   0
                l(3) =   1
                l(4) =   1
                l(5) =   2
                l(6) =   2
     Q(r) pseudized with 0 coefficients 


     atomic species   valence    mass     pseudopotential
        Si             4.00    28.08550     Si( 1.00)

     48 Sym. Ops., with inversion, found



   Cartesian axes

     site n.     atom                  positions (alat units)
         1           Si  tau(   1) = (  -0.2500000   0.2500000   0.2500000  )
         2           Si  tau(   2) = (  -0.5000000   0.5000000   0.5000000  )

     number of k points=    40
                       cart. coord. in units 2pi/alat
        k(    1) = (  -0.1250000   0.1250000   0.1250000), wk =   0.0625000
        k(    2) = (  -0.1250000  -0.8750000   0.1250000), wk =   0.0000000
        k(    3) = (  -0.3750000   0.3750000  -0.1250000), wk =   0.1250000
        k(    4) = (  -0.3750000  -0.6250000  -0.1250000), wk =   0.0000000
        k(    5) = (   0.3750000  -0.3750000   0.6250000), wk =   0.1250000
        k(    6) = (   0.3750000  -1.3750000   0.6250000), wk =   0.0000000
        k(    7) = (   0.1250000  -0.1250000   0.3750000), wk =   0.1250000
        k(    8) = (   0.1250000  -1.1250000   0.3750000), wk =   0.0000000
        k(    9) = (  -0.1250000   0.6250000   0.1250000), wk =   0.0625000
        k(   10) = (  -0.1250000  -0.3750000   0.1250000), wk =   0.0000000
        k(   11) = (   0.6250000  -0.1250000   0.8750000), wk =   0.1250000
        k(   12) = (   0.6250000  -1.1250000   0.8750000), wk =   0.0000000
        k(   13) = (   0.3750000   0.1250000   0.6250000), wk =   0.1250000
        k(   14) = (   0.3750000  -0.8750000   0.6250000), wk =   0.0000000
        k(   15) = (  -0.1250000  -0.8750000   0.1250000), wk =   0.0625000
        k(   16) = (  -0.1250000  -1.8750000   0.1250000), wk =   0.0000000
        k(   17) = (  -0.3750000   0.3750000   0.3750000), wk =   0.0625000
        k(   18) = (  -0.3750000  -0.6250000   0.3750000), wk =   0.0000000
        k(   19) = (   0.3750000  -0.3750000   1.1250000), wk =   0.1250000
        k(   20) = (   0.3750000  -1.3750000   1.1250000), wk =   0.0000000
        k(   21) = (   0.3750000  -0.1250000  -0.3750000), wk =   0.0625000
        k(   22) = (   0.3750000  -1.1250000  -0.3750000), wk =   0.0000000
        k(   23) = (  -0.3750000   0.6250000   0.3750000), wk =   0.0625000
        k(   24) = (  -0.3750000  -0.3750000   0.3750000), wk =   0.0000000
        k(   25) = (  -0.1250000   0.3750000   0.1250000), wk =   0.0625000
        k(   26) = (  -0.1250000  -0.6250000   0.1250000), wk =   0.0000000
        k(   27) = (   0.6250000   0.1250000  -0.1250000), wk =   0.1250000
        k(   28) = (   0.6250000  -0.8750000  -0.1250000), wk =   0.0000000
        k(   29) = (  -0.1250000   0.8750000   0.6250000), wk =   0.1250000
        k(   30) = (  -0.1250000  -0.1250000   0.6250000), wk =   0.0000000
        k(   31) = (   0.8750000   0.6250000  -0.1250000), wk =   0.1250000
        k(   32) = (   0.8750000  -0.3750000  -0.1250000), wk =   0.0000000
        k(   33) = (   0.1250000   0.6250000   0.3750000), wk =   0.1250000
        k(   34) = (   0.1250000  -0.3750000   0.3750000), wk =   0.0000000
        k(   35) = (   0.6250000   0.3750000   0.1250000), wk =   0.1250000
        k(   36) = (   0.6250000  -0.6250000   0.1250000), wk =   0.0000000
        k(   37) = (  -0.8750000   0.1250000  -0.1250000), wk =   0.1250000
        k(   38) = (  -0.8750000  -0.8750000  -0.1250000), wk =   0.0000000
        k(   39) = (  -0.3750000   1.1250000   0.3750000), wk =   0.0625000
        k(   40) = (  -0.3750000   0.1250000   0.3750000), wk =   0.0000000

     Dense  grid:    16889 G-vectors     FFT dimensions: (  36,  36,  36)

     Estimated max dynamical RAM per process >      56.53 MB

     The potential is recalculated from file :
     ./out/_ph0/Si.save/charge-density

     Starting wfcs are    8 atomic wfcs

     Band Structure Calculation
     Davidson diagonalization with overlap

     ethr =  1.25E-10,  avg # of iterations = 13.6

     total cpu time spent up to now is        6.3 secs

     End of band structure calculation

          k =-0.1250 0.1250 0.1250 (  2112 PWs)   bands (ev):

    -5.6330   4.5287   5.8496   5.8496

          k =-0.1250-0.8750 0.1250 (  2127 PWs)   bands (ev):

    -2.5377  -0.6949   2.6685   3.4412

          k =-0.3750 0.3750-0.1250 (  2117 PWs)   bands (ev):

    -4.5840   1.4956   3.8041   5.3653

          k =-0.3750-0.6250-0.1250 (  2117 PWs)   bands (ev):

    -3.6127   0.2833   2.7846   4.1932

          k = 0.3750-0.3750 0.6250 (  2122 PWs)   bands (ev):

    -3.4077  -0.6398   3.8395   4.5703

          k = 0.3750-1.3750 0.6250 (  2122 PWs)   bands (ev):

    -3.4077  -0.6398   3.8395   4.5703

          k = 0.1250-0.1250 0.3750 (  2117 PWs)   bands (ev):

    -5.0944   2.9025   4.8110   4.8845

          k = 0.1250-1.1250 0.3750 (  2142 PWs)   bands (ev):

    -2.3571  -0.7987   2.0327   3.1487

          k =-0.1250 0.6250 0.1250 (  2120 PWs)   bands (ev):

    -4.0415   1.1933   3.4416   3.9174

          k =-0.1250-0.3750 0.1250 (  2117 PWs)   bands (ev):

    -5.0944   2.9025   4.8110   4.8845

          k = 0.6250-0.1250 0.8750 (  2142 PWs)   bands (ev):

    -2.3571  -0.7987   2.0327   3.1487

          k = 0.6250-1.1250 0.8750 (  2117 PWs)   bands (ev):

    -5.0944   2.9025   4.8110   4.8845

          k = 0.3750 0.1250 0.6250 (  2117 PWs)   bands (ev):

    -3.6127   0.2833   2.7846   4.1932

          k = 0.3750-0.8750 0.6250 (  2117 PWs)   bands (ev):

    -3.6127   0.2833   2.7846   4.1932

          k =-0.1250-0.8750 0.1250 (  2127 PWs)   bands (ev):

    -2.5377  -0.6949   2.6685   3.4412

          k =-0.1250-1.8750 0.1250 (  2112 PWs)   bands (ev):

    -5.6330   4.5287   5.8496   5.8496

          k =-0.3750 0.3750 0.3750 (  2126 PWs)   bands (ev):

    -4.1378   0.1637   5.0503   5.0503

          k =-0.3750-0.6250 0.3750 (  2122 PWs)   bands (ev):

    -3.4077  -0.6398   3.8395   4.5703

          k = 0.3750-0.3750 1.1250 (  2125 PWs)   bands (ev):

    -2.9028  -0.5185   2.1044   4.2431

          k = 0.3750-1.3750 1.1250 (  2117 PWs)   bands (ev):

    -3.6127   0.2833   2.7846   4.1932

          k = 0.3750-0.1250-0.3750 (  2117 PWs)   bands (ev):

    -4.5840   1.4956   3.8041   5.3653

          k = 0.3750-1.1250-0.3750 (  2125 PWs)   bands (ev):

    -2.9028  -0.5185   2.1044   4.2431

          k =-0.3750 0.6250 0.3750 (  2122 PWs)   bands (ev):

    -3.4077  -0.6398   3.8395   4.5703

          k =-0.3750-0.3750 0.3750 (  2126 PWs)   bands (ev):

    -4.1378   0.1637   5.0503   5.0503

          k =-0.1250 0.3750 0.1250 (  2117 PWs)   bands (ev):

    -5.0944   2.9025   4.8110   4.8845

          k =-0.1250-0.6250 0.1250 (  2120 PWs)   bands (ev):

    -4.0415   1.1933   3.4416   3.9174

          k = 0.6250 0.1250-0.1250 (  2120 PWs)   bands (ev):

    -4.0415   1.1933   3.4416   3.9174

          k = 0.6250-0.8750-0.1250 (  2142 PWs)   bands (ev):

    -2.3571  -0.7987   2.0327   3.1487

          k =-0.1250 0.8750 0.6250 (  2142 PWs)   bands (ev):

    -2.3571  -0.7987   2.0327   3.1487

          k =-0.1250-0.1250 0.6250 (  2120 PWs)   bands (ev):

    -4.0415   1.1933   3.4416   3.9174

          k = 0.8750 0.6250-0.1250 (  2142 PWs)   bands (ev):

    -2.3571  -0.7987   2.0327   3.1487

          k = 0.8750-0.3750-0.1250 (  2142 PWs)   bands (ev):

    -2.3571  -0.7987   2.0327   3.1487

          k = 0.1250 0.6250 0.3750 (  2117 PWs)   bands (ev):

    -3.6127   0.2833   2.7846   4.1932

          k = 0.1250-0.3750 0.3750 (  2117 PWs)   bands (ev):

    -4.5840   1.4956   3.8041   5.3653

          k = 0.6250 0.3750 0.1250 (  2117 PWs)   bands (ev):

    -3.6127   0.2833   2.7846   4.1932

          k = 0.6250-0.6250 0.1250 (  2125 PWs)   bands (ev):

    -2.9028  -0.5185   2.1044   4.2431

          k =-0.8750 0.1250-0.1250 (  2127 PWs)   bands (ev):

    -2.5377  -0.6949   2.6685   3.4412

          k =-0.8750-0.8750-0.1250 (  2127 PWs)   bands (ev):

    -2.5377  -0.6949   2.6685   3.4412

          k =-0.3750 1.1250 0.3750 (  2125 PWs)   bands (ev):

    -2.9028  -0.5185   2.1044   4.2431

          k =-0.3750 0.1250 0.3750 (  2117 PWs)   bands (ev):

    -4.5840   1.4956   3.8041   5.3653

     highest occupied level (ev):     5.8496

     Writing config to output data dir ./out/_ph0/Si.save/

     default                                                                    

     bravais-lattice index     =            2
     lattice parameter (alat)  =      10.2673  a.u.
     unit-cell volume          =     270.5905 (a.u.)^3
     number of atoms/cell      =            2
     number of atomic types    =            1
     kinetic-energy cut-off    =      60.0000  Ry
     charge density cut-off    =     240.0000  Ry
     convergence threshold     =      1.0E-14
     beta                      =       0.7000
     number of iterations used =            4
     Exchange-correlation= PBESOL
                           (   1   4  10   8   0   0   0)


     celldm(1)=   10.26733  celldm(2)=    0.00000  celldm(3)=    0.00000
     celldm(4)=    0.00000  celldm(5)=    0.00000  celldm(6)=    0.00000

     crystal axes: (cart. coord. in units of alat)
               a(1) = ( -0.5000  0.0000  0.5000 )  
               a(2) = (  0.0000  0.5000  0.5000 )  
               a(3) = ( -0.5000  0.5000  0.0000 )  

     reciprocal axes: (cart. coord. in units 2 pi/alat)
               b(1) = ( -1.0000 -1.0000  1.0000 )  
               b(2) = (  1.0000  1.0000  1.0000 )  
               b(3) = ( -1.0000  1.0000 -1.0000 )  


     Atoms inside the unit cell: 

     Cartesian axes

     site n.  atom      mass           positions (alat units)
        1     Si  28.0855   tau(    1) = (   -0.25000    0.25000    0.25000  )
        2     Si  28.0855   tau(    2) = (   -0.50000    0.50000    0.50000  )

     Computing dynamical matrix for 
                    q = (   0.0000000  -1.0000000   0.0000000 )
 
     17 Sym.Ops. (with q -> -q+G )


     G cutoff =  640.8650  (  16889 G-vectors)     FFT grid: ( 36, 36, 36)
     number of k points=    40

     PseudoPot. # 1 for Si read from file:
     ../pseudo/Si.pbesol-n-rrkjus_psl.1.0.0.UPF
     MD5 check sum: c4212819de858c94c3a1644338846ac9
     Pseudo is Ultrasoft + core correction, Zval =  4.0
     Generated using "atomic" code by A. Dal Corso  v.6.0 svn rev. 13079
     Using radial grid of 1141 points,  6 beta functions with: 
                l(1) =   0
                l(2) =   0
                l(3) =   1
                l(4) =   1
                l(5) =   2
                l(6) =   2
     Q(r) pseudized with 0 coefficients 



     Atomic displacements:
     There are    3 irreducible representations

     Representation     1      2 modes -  To be done

     Representation     2      2 modes -  To be done

     Representation     3      2 modes -  To be done



     Alpha used in Ewald sum =   2.5000
     PHONON       :   1m32.19s CPU   1m33.82s WALL



     Representation #   1 modes #   1   2

     Self-consistent Calculation

      iter #   1 total cpu time :    95.3 secs   av.it.:   4.9
      thresh= 1.000E-02 alpha_mix =  0.700 |ddv_scf|^2 =  4.510E-08

      iter #   2 total cpu time :    97.4 secs   av.it.:  10.0
      thresh= 2.124E-05 alpha_mix =  0.700 |ddv_scf|^2 =  3.217E-09

      iter #   3 total cpu time :    99.7 secs   av.it.:  10.1
      thresh= 5.672E-06 alpha_mix =  0.700 |ddv_scf|^2 =  7.446E-12

      iter #   4 total cpu time :   101.9 secs   av.it.:  10.1
      thresh= 2.729E-07 alpha_mix =  0.700 |ddv_scf|^2 =  1.026E-13

      iter #   5 total cpu time :   104.2 secs   av.it.:  10.4
      thresh= 3.203E-08 alpha_mix =  0.700 |ddv_scf|^2 =  3.488E-16

     End of self-consistent calculation

     Convergence has been achieved 


     Representation #   2 modes #   3   4

     Self-consistent Calculation

      iter #   1 total cpu time :   105.9 secs   av.it.:   6.2
      thresh= 1.000E-02 alpha_mix =  0.700 |ddv_scf|^2 =  2.996E-06

      iter #   2 total cpu time :   108.1 secs   av.it.:  10.6
      thresh= 1.731E-04 alpha_mix =  0.700 |ddv_scf|^2 =  4.215E-06

      iter #   3 total cpu time :   110.2 secs   av.it.:   9.7
      thresh= 2.053E-04 alpha_mix =  0.700 |ddv_scf|^2 =  2.128E-09

      iter #   4 total cpu time :   112.5 secs   av.it.:  10.4
      thresh= 4.613E-06 alpha_mix =  0.700 |ddv_scf|^2 =  1.217E-10

      iter #   5 total cpu time :   114.7 secs   av.it.:  10.7
      thresh= 1.103E-06 alpha_mix =  0.700 |ddv_scf|^2 =  7.197E-13

      iter #   6 total cpu time :   116.9 secs   av.it.:  10.6
      thresh= 8.484E-08 alpha_mix =  0.700 |ddv_scf|^2 =  1.611E-14

      iter #   7 total cpu time :   119.1 secs   av.it.:  10.3
      thresh= 1.269E-08 alpha_mix =  0.700 |ddv_scf|^2 =  2.089E-16

     End of self-consistent calculation

     Convergence has been achieved 


     Representation #   3 modes #   5   6

     Self-consistent Calculation

      iter #   1 total cpu time :   120.9 secs   av.it.:   6.1
      thresh= 1.000E-02 alpha_mix =  0.700 |ddv_scf|^2 =  5.181E-07

      iter #   2 total cpu time :   123.2 secs   av.it.:  10.9
      thresh= 7.198E-05 alpha_mix =  0.700 |ddv_scf|^2 =  1.278E-07

      iter #   3 total cpu time :   125.4 secs   av.it.:  10.4
      thresh= 3.574E-05 alpha_mix =  0.700 |ddv_scf|^2 =  1.100E-09

      iter #   4 total cpu time :   127.5 secs   av.it.:  10.1
      thresh= 3.317E-06 alpha_mix =  0.700 |ddv_scf|^2 =  5.552E-13

      iter #   5 total cpu time :   129.8 secs   av.it.:  10.4
      thresh= 7.452E-08 alpha_mix =  0.700 |ddv_scf|^2 =  1.688E-14

      iter #   6 total cpu time :   131.9 secs   av.it.:  10.2
      thresh= 1.299E-08 alpha_mix =  0.700 |ddv_scf|^2 =  4.344E-17

     End of self-consistent calculation

     Convergence has been achieved 
 
     Number of q in the star =    3
     List of q in the star:
          1   0.000000000  -1.000000000   0.000000000
          2  -1.000000000   0.000000000   0.000000000
          3   0.000000000   0.000000000   1.000000000

     Diagonalizing the dynamical matrix

     q = (    0.000000000  -1.000000000   0.000000000 ) 

 **************************************************************************
     freq (    1) =       4.011518 [THz] =     133.809846 [cm-1]
     freq (    2) =       4.011518 [THz] =     133.809846 [cm-1]
     freq (    3) =      12.132987 [THz] =     404.712886 [cm-1]
     freq (    4) =      12.132987 [THz] =     404.712886 [cm-1]
     freq (    5) =      13.704765 [THz] =     457.141758 [cm-1]
     freq (    6) =      13.704765 [THz] =     457.141758 [cm-1]
 **************************************************************************
 
     init_run     :      0.67s CPU      0.71s WALL (       2 calls)
     electrons    :      5.55s CPU      5.62s WALL (       2 calls)

     Called by init_run:
     wfcinit      :      0.00s CPU      0.00s WALL (       2 calls)
     potinit      :      0.03s CPU      0.03s WALL (       2 calls)
     hinit0       :      0.52s CPU      0.52s WALL (       2 calls)

     Called by electrons:
     c_bands      :      5.55s CPU      5.62s WALL (       2 calls)
     v_of_rho     :      0.04s CPU      0.05s WALL (       3 calls)
     newd         :      0.07s CPU      0.14s WALL (       3 calls)

     Called by c_bands:
     init_us_2    :      1.16s CPU      1.25s WALL (    2030 calls)
     init_us_2:cp :      1.16s CPU      1.25s WALL (    2030 calls)
     cegterg      :      4.43s CPU      4.48s WALL (     100 calls)

     Called by *egterg:
     cdiaghg      :      0.11s CPU      0.11s WALL (    1458 calls)
     h_psi        :     66.44s CPU     67.12s WALL (   26469 calls)
     s_psi        :      8.51s CPU      8.64s WALL (   53600 calls)
     g_psi        :      0.04s CPU      0.04s WALL (    1358 calls)

     Called by h_psi:
     h_psi:calbec :      4.51s CPU      4.55s WALL (   26469 calls)
     vloc_psi     :     57.31s CPU     57.91s WALL (   26469 calls)
     add_vuspsi   :      4.15s CPU      4.20s WALL (   26469 calls)

     General routines
     calbec       :     10.17s CPU     10.32s WALL (   61300 calls)
     fft          :      0.59s CPU      0.60s WALL (    2142 calls)
     ffts         :      0.13s CPU      0.14s WALL (     492 calls)
     fftw         :     55.73s CPU     56.41s WALL (  222276 calls)
     davcio       :      0.46s CPU      0.69s WALL (   11689 calls)
 
     Parallel routines
 
     PHONON       :   2m 9.80s CPU   2m12.03s WALL

     INITIALIZATION: 
     phq_setup    :      0.19s CPU      0.22s WALL (       3 calls)
     phq_init     :      5.50s CPU      5.54s WALL (       3 calls)
 
     phq_init     :      5.50s CPU      5.54s WALL (       3 calls)
     set_drhoc    :      1.19s CPU      1.19s WALL (       9 calls)
     init_vloc    :      0.01s CPU      0.01s WALL (       3 calls)
     init_us_1    :      0.80s CPU      0.80s WALL (       3 calls)
     init_us_2    :      1.16s CPU      1.25s WALL (    2030 calls)
     newd         :      0.07s CPU      0.14s WALL (       3 calls)
     dvanqq       :      1.75s CPU      1.76s WALL (       3 calls)
     drho         :      2.00s CPU      2.03s WALL (       3 calls)
     drhous       :      0.95s CPU      0.96s WALL (       3 calls)
     nldyntot     :      0.01s CPU      0.01s WALL (       3 calls)
 
     DYNAMICAL MATRIX:
     dynmat0      :      0.91s CPU      0.91s WALL (       3 calls)
     phqscf       :    104.65s CPU    106.32s WALL (       3 calls)
     dynmatrix    :      0.00s CPU      0.00s WALL (       3 calls)
 
     phqscf       :    104.65s CPU    106.32s WALL (       3 calls)
     solve_linter :    102.86s CPU    104.48s WALL (       9 calls)
     drhodv       :      0.49s CPU      0.51s WALL (       9 calls)
 
     dynmat0      :      0.91s CPU      0.91s WALL (       3 calls)
     dynmat_us    :      0.14s CPU      0.15s WALL (       3 calls)
     d2ionq       :      0.01s CPU      0.01s WALL (       3 calls)
     dynmatcc     :      0.76s CPU      0.76s WALL (       3 calls)
 
     dynmat_us    :      0.14s CPU      0.15s WALL (       3 calls)
     addusdynmat  :      0.00s CPU      0.00s WALL (       3 calls)
 
     phqscf       :    104.65s CPU    106.32s WALL (       3 calls)
     solve_linter :    102.86s CPU    104.48s WALL (       9 calls)
 
     solve_linter :    102.86s CPU    104.48s WALL (       9 calls)
     dvqpsi_us    :      2.04s CPU      2.07s WALL (     420 calls)
                                        0.00s GPU  (     420 calls)
     sth_kernel   :     91.91s CPU     93.21s WALL (      56 calls)
     h_prec       :      0.08s CPU      0.08s WALL (    1230 calls)
     apply_dpot_b :      4.85s CPU      4.97s WALL (    1770 calls)
     ortho        :      0.95s CPU      0.97s WALL (    2190 calls)
     cgsolve      :     79.61s CPU     80.51s WALL (    2190 calls)
     incdrhoscf   :      7.07s CPU      7.27s WALL (    2190 calls)
                                        0.00s GPU  (    2190 calls)
     addusddens   :      6.89s CPU      6.90s WALL (      60 calls)
     dv_of_drho   :      0.80s CPU      0.84s WALL (     117 calls)
     mix_pot      :      0.11s CPU      0.32s WALL (      56 calls)
     psymdvscf    :      2.14s CPU      2.15s WALL (      51 calls)
     newdq        :      7.30s CPU      7.32s WALL (      56 calls)
     adddvscf     :      0.57s CPU      0.57s WALL (    1770 calls)
     drhodvus     :      0.01s CPU      0.02s WALL (       9 calls)
 
     dvqpsi_us    :      2.04s CPU      2.07s WALL (     420 calls)
                                        0.00s GPU  (     420 calls)
     dvqpsi_us_on :      0.66s CPU      0.66s WALL (     420 calls)
 
     cgsolve      :     79.61s CPU     80.51s WALL (    2190 calls)
     ch_psi       :     77.71s CPU     78.57s WALL (   24911 calls)
 
     ch_psi       :     77.71s CPU     78.57s WALL (   24911 calls)
     h_psi        :     66.44s CPU     67.12s WALL (   26469 calls)
     last         :     10.54s CPU     10.71s WALL (   24911 calls)
 
     h_psi        :     66.44s CPU     67.12s WALL (   26469 calls)
     add_vuspsi   :      4.15s CPU      4.20s WALL (   26469 calls)
 
     incdrhoscf   :      7.07s CPU      7.27s WALL (    2190 calls)
                                        0.00s GPU  (    2190 calls)
     addusdbec    :      0.51s CPU      0.51s WALL (    2550 calls)
 
     drhodvus     :      0.01s CPU      0.02s WALL (       9 calls)
 
      General routines
     calbec       :     10.17s CPU     10.32s WALL (   61300 calls)
     fft          :      0.59s CPU      0.60s WALL (    2142 calls)
     ffts         :      0.13s CPU      0.14s WALL (     492 calls)
     fftw         :     55.73s CPU     56.41s WALL (  222276 calls)
     davcio       :      0.46s CPU      0.69s WALL (   11689 calls)
     write_rec    :      0.02s CPU      0.16s WALL (      65 calls)
 
      Additional routines
     ch_psi       :     77.71s CPU     78.57s WALL (   24911 calls)
     last         :     10.54s CPU     10.71s WALL (   24911 calls)
     Hesh         :      0.51s CPU      0.52s WALL (   24911 calls)
     ch_psi_all_k :      9.93s CPU     10.08s WALL (   24911 calls)
                                        0.00s GPU  (   24911 calls)
     ch_psi_calbe :      4.04s CPU      4.10s WALL (   24911 calls)
                                        0.00s GPU  (   24911 calls)
     h_psi_bgrp   :     66.50s CPU     67.19s WALL (   26469 calls)
     h_psi        :     66.44s CPU     67.12s WALL (   26469 calls)
     h_psi:pot    :     66.13s CPU     66.81s WALL (   26469 calls)
     h_psi:calbec :      4.51s CPU      4.55s WALL (   26469 calls)
     s_psi_bgrp   :      9.18s CPU      9.31s WALL (   53600 calls)
     s_psi        :      8.51s CPU      8.64s WALL (   53600 calls)
 
 
     PHONON       :   2m 9.80s CPU   2m12.03s WALL

 
   This run was terminated on:   1:33:20  27Dec2022            

=------------------------------------------------------------------------------=
   JOB DONE.
=------------------------------------------------------------------------------=
