
     Program PWSCF v.7.1 starts on 18Dec2023 at 15:38:51 

     This program is part of the open-source Quantum ESPRESSO suite
     for quantum simulation of materials; please cite
         "P. Giannozzi et al., J. Phys.:Condens. Matter 21 395502 (2009);
         "P. Giannozzi et al., J. Phys.:Condens. Matter 29 465901 (2017);
         "P. Giannozzi et al., J. Chem. Phys. 152 154105 (2020);
          URL http://www.quantum-espresso.org", 
     in publications or presentations arising from this work. More details at
     http://www.quantum-espresso.org/quote

     Parallel version (MPI), running on     1 processors

     MPI processes distributed on     1 nodes
     2230 MiB available memory on the printing compute node when the environment starts
 
     Waiting for input...
     Reading input from standard input

     Current dimensions of program PWSCF are:
     Max number of different atomic species (ntypx) = 10
     Max number of k-points (npk) =  40000
     Max angular momentum in pseudopotentials (lmaxx) =  4
 
     Subspace diagonalization in iterative solution of the eigenvalue problem:
     a serial algorithm will be used

 
     G-vector sticks info
     --------------------
     sticks:   dense  smooth     PW     G-vecs:    dense   smooth      PW
     Sum        2587     859    253                86547    16625    2733
 
     Using Slab Decomposition
 


     bravais-lattice index     =            2
     lattice parameter (alat)  =      10.2000  a.u.
     unit-cell volume          =     265.3020 (a.u.)^3
     number of atoms/cell      =            2
     number of atomic types    =            1
     number of electrons       =         8.00
     number of Kohn-Sham states=            4
     kinetic-energy cutoff     =      60.0000  Ry
     charge density cutoff     =     720.0000  Ry
     scf convergence threshold =      1.0E-08
     mixing beta               =       0.7000
     number of iterations used =            8  plain     mixing
     Exchange-correlation= PBESOL
                           (   1   4  10   8   0   0   0)

     celldm(1)=  10.200000  celldm(2)=   0.000000  celldm(3)=   0.000000
     celldm(4)=   0.000000  celldm(5)=   0.000000  celldm(6)=   0.000000

     crystal axes: (cart. coord. in units of alat)
               a(1) = (  -0.500000   0.000000   0.500000 )  
               a(2) = (   0.000000   0.500000   0.500000 )  
               a(3) = (  -0.500000   0.500000   0.000000 )  

     reciprocal axes: (cart. coord. in units 2 pi/alat)
               b(1) = ( -1.000000 -1.000000  1.000000 )  
               b(2) = (  1.000000  1.000000  1.000000 )  
               b(3) = ( -1.000000  1.000000 -1.000000 )  


     PseudoPot. # 1 for Si read from file:
     ../../pseudo/Si.pbesol-n-rrkjus_psl.1.0.0.UPF
     MD5 check sum: c4212819de858c94c3a1644338846ac9
     Pseudo is Ultrasoft + core correction, Zval =  4.0
     Generated using "atomic" code by A. Dal Corso  v.6.0 svn rev. 13079
     Using radial grid of 1141 points,  6 beta functions with: 
                l(1) =   0
                l(2) =   0
                l(3) =   1
                l(4) =   1
                l(5) =   2
                l(6) =   2
     Q(r) pseudized with 0 coefficients 


     atomic species   valence    mass     pseudopotential
        Si             4.00    28.08550     Si( 1.00)

     48 Sym. Ops., with inversion, found (24 have fractional translation)



   Cartesian axes

     site n.     atom                  positions (alat units)
         1           Si  tau(   1) = (   0.0000000   0.0000000   0.0000000  )
         2           Si  tau(   2) = (   0.2500000   0.2500000   0.2500000  )

     number of k points=    10
                       cart. coord. in units 2pi/alat
        k(    1) = (  -0.1250000   0.1250000   0.1250000), wk =   0.0625000
        k(    2) = (  -0.3750000   0.3750000  -0.1250000), wk =   0.1875000
        k(    3) = (   0.3750000  -0.3750000   0.6250000), wk =   0.1875000
        k(    4) = (   0.1250000  -0.1250000   0.3750000), wk =   0.1875000
        k(    5) = (  -0.1250000   0.6250000   0.1250000), wk =   0.1875000
        k(    6) = (   0.6250000  -0.1250000   0.8750000), wk =   0.3750000
        k(    7) = (   0.3750000   0.1250000   0.6250000), wk =   0.3750000
        k(    8) = (  -0.1250000  -0.8750000   0.1250000), wk =   0.1875000
        k(    9) = (  -0.3750000   0.3750000   0.3750000), wk =   0.0625000
        k(   10) = (   0.3750000  -0.3750000   1.1250000), wk =   0.1875000

     Dense  grid:    86547 G-vectors     FFT dimensions: (  64,  64,  64)

     Smooth grid:    16625 G-vectors     FFT dimensions: (  36,  36,  36)

     Estimated max dynamical RAM per process >     306.42 MB

     Initial potential from superposition of free atoms

     starting charge       7.9989, renormalised to       8.0000
     Starting wfcs are    8 randomized atomic wfcs

     total cpu time spent up to now is        1.1 secs

     Self-consistent Calculation

     iteration #  1     ecut=    60.00 Ry     beta= 0.70
     Davidson diagonalization with overlap
     ethr =  1.00E-02,  avg # of iterations =  2.0

     Threshold (ethr) on eigenvalues was too large:
     Diagonalizing with lowered threshold

     Davidson diagonalization with overlap
     ethr =  6.22E-04,  avg # of iterations =  1.5

     total cpu time spent up to now is        2.9 secs

     total energy              =     -22.67422389 Ry
     estimated scf accuracy    <       0.05430480 Ry

     iteration #  2     ecut=    60.00 Ry     beta= 0.70
     Davidson diagonalization with overlap
     ethr =  6.79E-04,  avg # of iterations =  1.0

     total cpu time spent up to now is        4.0 secs

     total energy              =     -22.67631933 Ry
     estimated scf accuracy    <       0.00247167 Ry

     iteration #  3     ecut=    60.00 Ry     beta= 0.70
     Davidson diagonalization with overlap
     ethr =  3.09E-05,  avg # of iterations =  2.8

     total cpu time spent up to now is        5.1 secs

     total energy              =     -22.67729910 Ry
     estimated scf accuracy    <       0.00014745 Ry

     iteration #  4     ecut=    60.00 Ry     beta= 0.70
     Davidson diagonalization with overlap
     ethr =  1.84E-06,  avg # of iterations =  3.6

     total cpu time spent up to now is        6.2 secs

     total energy              =     -22.67735718 Ry
     estimated scf accuracy    <       0.00003566 Ry

     iteration #  5     ecut=    60.00 Ry     beta= 0.70
     Davidson diagonalization with overlap
     ethr =  4.46E-07,  avg # of iterations =  2.8

     total cpu time spent up to now is        7.4 secs

     total energy              =     -22.67736608 Ry
     estimated scf accuracy    <       0.00000019 Ry

     iteration #  6     ecut=    60.00 Ry     beta= 0.70
     Davidson diagonalization with overlap
     ethr =  2.37E-09,  avg # of iterations =  7.9

     total cpu time spent up to now is        8.7 secs

     End of self-consistent calculation

          k =-0.1250 0.1250 0.1250 (  2079 PWs)   bands (ev):

    -5.5587   4.7294   6.0519   6.0519

          k =-0.3750 0.3750-0.1250 (  2078 PWs)   bands (ev):

    -4.4908   1.6627   3.9726   5.5628

          k = 0.3750-0.3750 0.6250 (  2080 PWs)   bands (ev):

    -3.2868  -0.5164   4.0178   4.7513

          k = 0.1250-0.1250 0.3750 (  2065 PWs)   bands (ev):

    -5.0107   3.0936   4.9922   5.0784

          k =-0.1250 0.6250 0.1250 (  2079 PWs)   bands (ev):

    -3.9393   1.3788   3.5989   4.0835

          k = 0.6250-0.1250 0.8750 (  2092 PWs)   bands (ev):

    -2.2194  -0.6420   2.1557   3.2942

          k = 0.3750 0.1250 0.6250 (  2080 PWs)   bands (ev):

    -3.5006   0.4415   2.9343   4.3635

          k =-0.1250-0.8750 0.1250 (  2089 PWs)   bands (ev):

    -2.4084  -0.5336   2.8052   3.5997

          k =-0.3750 0.3750 0.3750 (  2072 PWs)   bands (ev):

    -4.0346   0.3005   5.2419   5.2419

          k = 0.3750-0.3750 1.1250 (  2088 PWs)   bands (ev):

    -2.7734  -0.3737   2.2371   4.4171

     highest occupied level (ev):     6.0519

!    total energy              =     -22.67736751 Ry
     estimated scf accuracy    <          7.1E-09 Ry

     The total energy is the sum of the following terms:
     one-electron contribution =       5.31989789 Ry
     hartree contribution      =       1.06433808 Ry
     xc contribution           =     -12.16184492 Ry
     ewald contribution        =     -16.89975857 Ry

     convergence has been achieved in   6 iterations

     Writing all to output data dir ./out/Si.save/
 
     init_run     :      0.84s CPU      1.06s WALL (       1 calls)
     electrons    :      5.24s CPU      7.58s WALL (       1 calls)

     Called by init_run:
     wfcinit      :      0.11s CPU      0.11s WALL (       1 calls)
     potinit      :      0.15s CPU      0.19s WALL (       1 calls)
     hinit0       :      0.36s CPU      0.37s WALL (       1 calls)

     Called by electrons:
     c_bands      :      1.71s CPU      1.73s WALL (       7 calls)
     sum_band     :      1.76s CPU      3.18s WALL (       7 calls)
     v_of_rho     :      0.79s CPU      0.82s WALL (       7 calls)
     newd         :      1.21s CPU      2.23s WALL (       7 calls)
     mix_rho      :      0.04s CPU      0.04s WALL (       7 calls)

     Called by c_bands:
     init_us_2    :      0.09s CPU      0.10s WALL (     150 calls)
     init_us_2:cp :      0.09s CPU      0.10s WALL (     150 calls)
     cegterg      :      1.23s CPU      1.25s WALL (      70 calls)

     Called by *egterg:
     cdiaghg      :      0.02s CPU      0.02s WALL (     276 calls)
     h_psi        :      1.16s CPU      1.17s WALL (     296 calls)
     s_psi        :      0.06s CPU      0.06s WALL (     296 calls)
     g_psi        :      0.01s CPU      0.01s WALL (     216 calls)

     Called by h_psi:
     h_psi:calbec :      0.06s CPU      0.06s WALL (     296 calls)
     vloc_psi     :      1.03s CPU      1.04s WALL (     296 calls)
     add_vuspsi   :      0.06s CPU      0.06s WALL (     296 calls)

     General routines
     calbec       :      0.08s CPU      0.08s WALL (     366 calls)
     fft          :      0.23s CPU      0.23s WALL (      90 calls)
     ffts         :      0.00s CPU      0.00s WALL (      14 calls)
     fftw         :      0.66s CPU      0.66s WALL (    2350 calls)
     interpolate  :      0.02s CPU      0.02s WALL (       7 calls)
 
     Parallel routines
 
     PWSCF        :      6.16s CPU      8.77s WALL

 
   This run was terminated on:  15:39: 0  18Dec2023            

=------------------------------------------------------------------------------=
   JOB DONE.
=------------------------------------------------------------------------------=
