
     Program MATDYN v.7.1 starts on 26Dec2022 at 21:20:21 

     This program is part of the open-source Quantum ESPRESSO suite
     for quantum simulation of materials; please cite
         "P. Giannozzi et al., J. Phys.:Condens. Matter 21 395502 (2009);
         "P. Giannozzi et al., J. Phys.:Condens. Matter 29 465901 (2017);
         "P. Giannozzi et al., J. Chem. Phys. 152 154105 (2020);
          URL http://www.quantum-espresso.org", 
     in publications or presentations arising from this work. More details at
     http://www.quantum-espresso.org/quote

     Parallel version (MPI), running on    24 processors

     MPI processes distributed on     1 nodes
     R & G space division:  proc/nbgrp/npool/nimage =      24
     106943 MiB available memory on the printing compute node when the environment starts
 
 mass for atomic type   1 not given; uses mass from file Si.fc                                                                                                                                                                                                                                                           
 
     MATDYN       :      3.06s CPU      3.07s WALL

 
   This run was terminated on:  21:20:24  26Dec2022            

=------------------------------------------------------------------------------=
   JOB DONE.
=------------------------------------------------------------------------------=
