[Molden Format]
[FREQ]
    0.00
    0.00
    0.00
  509.54
  509.54
  509.54
[FR-COORD]
   Si         -2.56680        2.56680        2.56680
   Si         -5.13360        5.13360        5.13360
[FR-NORM-COORD]
 vibration     1
   0.00000  -0.70711   0.00000
   0.00000  -0.70711   0.00000
 vibration     2
  -0.70711   0.00000   0.00000
  -0.70711   0.00000   0.00000
 vibration     3
   0.00000   0.00000  -0.70711
   0.00000   0.00000  -0.70711
 vibration     4
   0.00000   0.70711   0.00000
   0.00000  -0.70711   0.00000
 vibration     5
   0.00000   0.00000  -0.70711
   0.00000   0.00000   0.70711
 vibration     6
  -0.70711   0.00000   0.00000
   0.70711   0.00000   0.00000
