
     Program PHONON v.7.1 starts on 27Dec2022 at  1:50:54 

     This program is part of the open-source Quantum ESPRESSO suite
     for quantum simulation of materials; please cite
         "P. Giannozzi et al., J. Phys.:Condens. Matter 21 395502 (2009);
         "P. Giannozzi et al., J. Phys.:Condens. Matter 29 465901 (2017);
         "P. Giannozzi et al., J. Chem. Phys. 152 154105 (2020);
          URL http://www.quantum-espresso.org", 
     in publications or presentations arising from this work. More details at
     http://www.quantum-espresso.org/quote

     Parallel version (MPI), running on     1 processors

     MPI processes distributed on     1 nodes
     9383 MiB available memory on the printing compute node when the environment starts
 
     Waiting for input...
     Reading input from standard input
      Title line not specified: using 'default'.

     Reading xml data from directory:

     ./out/Si.save/
 
     Subspace diagonalization in iterative solution of the eigenvalue problem:
     a serial algorithm will be used


     IMPORTANT: XC functional enforced from input :
     Exchange-correlation= PBESOL
                           (   1   4  10   8   0   0   0)
     Any further DFT definition will be discarded
     Please, verify this is what you really want

 
     G-vector sticks info
     --------------------
     sticks:   dense  smooth     PW     G-vecs:    dense   smooth      PW
     Sum         859     859    265                16889    16889    2891
 
     Using Slab Decomposition
 
     Reading collected, re-writing distributed wavefunctions in ./out/

     Calculation of q =    0.0000000   0.0000000   0.0000000

     default                                                                    

     bravais-lattice index     =            2
     lattice parameter (alat)  =      10.2673  a.u.
     unit-cell volume          =     270.5905 (a.u.)^3
     number of atoms/cell      =            2
     number of atomic types    =            1
     kinetic-energy cut-off    =      60.0000  Ry
     charge density cut-off    =     240.0000  Ry
     convergence threshold     =      1.0E-14
     beta                      =       0.7000
     number of iterations used =            4
     Exchange-correlation= PBESOL
                           (   1   4  10   8   0   0   0)


     celldm(1)=   10.26733  celldm(2)=    0.00000  celldm(3)=    0.00000
     celldm(4)=    0.00000  celldm(5)=    0.00000  celldm(6)=    0.00000

     crystal axes: (cart. coord. in units of alat)
               a(1) = ( -0.5000  0.0000  0.5000 )  
               a(2) = (  0.0000  0.5000  0.5000 )  
               a(3) = ( -0.5000  0.5000  0.0000 )  

     reciprocal axes: (cart. coord. in units 2 pi/alat)
               b(1) = ( -1.0000 -1.0000  1.0000 )  
               b(2) = (  1.0000  1.0000  1.0000 )  
               b(3) = ( -1.0000  1.0000 -1.0000 )  


     Atoms inside the unit cell: 

     Cartesian axes

     site n.  atom      mass           positions (alat units)
        1     Si  28.0855   tau(    1) = (   -0.25000    0.25000    0.25000  )
        2     Si  28.0855   tau(    2) = (   -0.50000    0.50000    0.50000  )

     Computing dynamical matrix for 
                    q = (   0.0000000   0.0000000   0.0000000 )
 
     49 Sym.Ops. (with q -> -q+G )


     G cutoff =  640.8650  (  16889 G-vectors)     FFT grid: ( 36, 36, 36)
     number of k points=    28
                       cart. coord. in units 2pi/alat
        k(    1) = (  -0.0833333   0.0833333   0.0833333), wk =   0.0185185
        k(    2) = (  -0.2500000   0.2500000  -0.0833333), wk =   0.0555556
        k(    3) = (  -0.4166667   0.4166667  -0.2500000), wk =   0.0555556
        k(    4) = (   0.4166667  -0.4166667   0.5833333), wk =   0.0555556
        k(    5) = (   0.2500000  -0.2500000   0.4166667), wk =   0.0555556
        k(    6) = (   0.0833333  -0.0833333   0.2500000), wk =   0.0555556
        k(    7) = (  -0.0833333   0.4166667   0.0833333), wk =   0.0555556
        k(    8) = (  -0.2500000   0.5833333  -0.0833333), wk =   0.1111111
        k(    9) = (   0.5833333  -0.2500000   0.7500000), wk =   0.1111111
        k(   10) = (   0.4166667  -0.0833333   0.5833333), wk =   0.1111111
        k(   11) = (   0.2500000   0.0833333   0.4166667), wk =   0.1111111
        k(   12) = (  -0.0833333   0.7500000   0.0833333), wk =   0.0555556
        k(   13) = (   0.7500000  -0.0833333   0.9166667), wk =   0.1111111
        k(   14) = (   0.5833333   0.0833333   0.7500000), wk =   0.1111111
        k(   15) = (   0.4166667   0.2500000   0.5833333), wk =   0.1111111
        k(   16) = (  -0.0833333  -0.9166667   0.0833333), wk =   0.0555556
        k(   17) = (  -0.2500000  -0.7500000  -0.0833333), wk =   0.1111111
        k(   18) = (  -0.0833333  -0.5833333   0.0833333), wk =   0.0555556
        k(   19) = (  -0.2500000   0.2500000   0.2500000), wk =   0.0185185
        k(   20) = (  -0.4166667   0.4166667   0.0833333), wk =   0.0555556
        k(   21) = (   0.4166667  -0.4166667   0.9166667), wk =   0.0555556
        k(   22) = (   0.2500000  -0.2500000   0.7500000), wk =   0.0555556
        k(   23) = (  -0.2500000   0.5833333   0.2500000), wk =   0.0555556
        k(   24) = (   0.5833333  -0.2500000   1.0833333), wk =   0.1111111
        k(   25) = (   0.4166667  -0.0833333   0.9166667), wk =   0.1111111
        k(   26) = (  -0.2500000  -1.0833333   0.2500000), wk =   0.0555556
        k(   27) = (  -0.4166667   0.4166667   0.4166667), wk =   0.0185185
        k(   28) = (   0.4166667  -0.4166667   1.2500000), wk =   0.0555556

     PseudoPot. # 1 for Si read from file:
     ../pseudo/Si.pbesol-n-rrkjus_psl.1.0.0.UPF
     MD5 check sum: c4212819de858c94c3a1644338846ac9
     Pseudo is Ultrasoft + core correction, Zval =  4.0
     Generated using "atomic" code by A. Dal Corso  v.6.0 svn rev. 13079
     Using radial grid of 1141 points,  6 beta functions with: 
                l(1) =   0
                l(2) =   0
                l(3) =   1
                l(4) =   1
                l(5) =   2
                l(6) =   2
     Q(r) pseudized with 0 coefficients 


     Mode symmetry, O_h (m-3m)  point group:


     Atomic displacements:
     There are    2 irreducible representations

     Representation     1      3 modes -  To be done

     Representation     2      3 modes -  To be done



     Alpha used in Ewald sum =   2.5000
     PHONON       :      2.34s CPU      2.42s WALL



     Representation #   1 modes #   1   2   3

     Self-consistent Calculation

      iter #   1 total cpu time :     5.5 secs   av.it.:   5.5
      thresh= 1.000E-02 alpha_mix =  0.700 |ddv_scf|^2 =  3.111E-08

      iter #   2 total cpu time :    10.1 secs   av.it.:  10.8
      thresh= 1.764E-05 alpha_mix =  0.700 |ddv_scf|^2 =  1.887E-09

      iter #   3 total cpu time :    14.7 secs   av.it.:  10.6
      thresh= 4.344E-06 alpha_mix =  0.700 |ddv_scf|^2 =  9.791E-11

      iter #   4 total cpu time :    19.2 secs   av.it.:  10.5
      thresh= 9.895E-07 alpha_mix =  0.700 |ddv_scf|^2 =  1.479E-13

      iter #   5 total cpu time :    23.9 secs   av.it.:  11.2
      thresh= 3.846E-08 alpha_mix =  0.700 |ddv_scf|^2 =  2.069E-15

     End of self-consistent calculation

     Convergence has been achieved 


     Representation #   2 modes #   4   5   6

     Self-consistent Calculation

      iter #   1 total cpu time :    27.1 secs   av.it.:   5.6
      thresh= 1.000E-02 alpha_mix =  0.700 |ddv_scf|^2 =  2.906E-08

      iter #   2 total cpu time :    31.8 secs   av.it.:  10.9
      thresh= 1.705E-05 alpha_mix =  0.700 |ddv_scf|^2 =  2.025E-09

      iter #   3 total cpu time :    36.4 secs   av.it.:  10.8
      thresh= 4.500E-06 alpha_mix =  0.700 |ddv_scf|^2 =  9.319E-11

      iter #   4 total cpu time :    41.0 secs   av.it.:  11.0
      thresh= 9.654E-07 alpha_mix =  0.700 |ddv_scf|^2 =  2.393E-13

      iter #   5 total cpu time :    45.7 secs   av.it.:  10.9
      thresh= 4.892E-08 alpha_mix =  0.700 |ddv_scf|^2 =  5.725E-16

     End of self-consistent calculation

     Convergence has been achieved 
 
     Number of q in the star =    1
     List of q in the star:
          1   0.000000000   0.000000000   0.000000000

     Diagonalizing the dynamical matrix

     q = (    0.000000000   0.000000000   0.000000000 ) 

 **************************************************************************
     freq (    1) =      -0.629012 [THz] =     -20.981596 [cm-1]
     freq (    2) =      -0.629012 [THz] =     -20.981596 [cm-1]
     freq (    3) =      -0.629012 [THz] =     -20.981596 [cm-1]
     freq (    4) =      15.264580 [THz] =     509.171584 [cm-1]
     freq (    5) =      15.264580 [THz] =     509.171584 [cm-1]
     freq (    6) =      15.264580 [THz] =     509.171584 [cm-1]
 **************************************************************************

     Mode symmetry, O_h (m-3m)  point group:

     freq (   1-   3) =        -21.0  [cm-1]   --> T_1u G_15  G_4- I  
     freq (   4-   6) =        509.2  [cm-1]   --> T_2g G_25' G_5+ R  
 
     PHONON       :     45.11s CPU     45.88s WALL

     INITIALIZATION: 
     phq_setup    :      0.04s CPU      0.06s WALL (       1 calls)
     phq_init     :      1.82s CPU      1.83s WALL (       1 calls)
 
     phq_init     :      1.82s CPU      1.83s WALL (       1 calls)
     set_drhoc    :      0.38s CPU      0.38s WALL (       3 calls)
     init_vloc    :      0.00s CPU      0.00s WALL (       1 calls)
     init_us_1    :      0.33s CPU      0.33s WALL (       1 calls)
     init_us_2    :      0.28s CPU      0.30s WALL (     476 calls)
     newd         :      0.02s CPU      0.05s WALL (       1 calls)
     dvanqq       :      0.54s CPU      0.54s WALL (       1 calls)
     drho         :      0.68s CPU      0.69s WALL (       1 calls)
     drhous       :      0.45s CPU      0.46s WALL (       1 calls)
     nldyntot     :      0.01s CPU      0.01s WALL (       1 calls)
 
     DYNAMICAL MATRIX:
     dynmat0      :      0.32s CPU      0.33s WALL (       1 calls)
     phqscf       :     42.77s CPU     43.42s WALL (       1 calls)
     dynmatrix    :      0.00s CPU      0.00s WALL (       1 calls)
 
     phqscf       :     42.77s CPU     43.42s WALL (       1 calls)
     solve_linter :     42.57s CPU     43.22s WALL (       2 calls)
     drhodv       :      0.19s CPU      0.20s WALL (       2 calls)
 
     dynmat0      :      0.32s CPU      0.33s WALL (       1 calls)
     dynmat_us    :      0.07s CPU      0.07s WALL (       1 calls)
     d2ionq       :      0.00s CPU      0.00s WALL (       1 calls)
     dynmatcc     :      0.25s CPU      0.26s WALL (       1 calls)
 
     dynmat_us    :      0.07s CPU      0.07s WALL (       1 calls)
     addusdynmat  :      0.00s CPU      0.00s WALL (       1 calls)
 
     phqscf       :     42.77s CPU     43.42s WALL (       1 calls)
     solve_linter :     42.57s CPU     43.22s WALL (       2 calls)
 
     solve_linter :     42.57s CPU     43.22s WALL (       2 calls)
     dvqpsi_us    :      0.84s CPU      0.85s WALL (     168 calls)
                                        0.00s GPU  (     168 calls)
     sth_kernel   :     37.94s CPU     38.42s WALL (      10 calls)
     h_prec       :      0.02s CPU      0.02s WALL (     280 calls)
     apply_dpot_b :      1.91s CPU      1.95s WALL (     672 calls)
     ortho        :      0.36s CPU      0.37s WALL (     840 calls)
     cgsolve      :     32.42s CPU     32.75s WALL (     840 calls)
     incdrhoscf   :      2.74s CPU      2.82s WALL (     840 calls)
                                        0.00s GPU  (     840 calls)
     addusddens   :      1.08s CPU      1.09s WALL (      12 calls)
     dv_of_drho   :      0.21s CPU      0.22s WALL (      30 calls)
     mix_pot      :      0.03s CPU      0.08s WALL (      10 calls)
     psymdvscf    :      1.16s CPU      1.16s WALL (      10 calls)
     newdq        :      1.39s CPU      1.40s WALL (      10 calls)
     adddvscf     :      0.18s CPU      0.18s WALL (     672 calls)
     drhodvus     :      0.00s CPU      0.00s WALL (       2 calls)
 
     dvqpsi_us    :      0.84s CPU      0.85s WALL (     168 calls)
                                        0.00s GPU  (     168 calls)
     dvqpsi_us_on :      0.28s CPU      0.28s WALL (     168 calls)
 
     cgsolve      :     32.42s CPU     32.75s WALL (     840 calls)
     ch_psi       :     31.67s CPU     31.98s WALL (    9676 calls)
 
     ch_psi       :     31.67s CPU     31.98s WALL (    9676 calls)
     h_psi        :     25.67s CPU     25.90s WALL (    9676 calls)
     last         :      4.13s CPU      4.19s WALL (    9676 calls)
 
     h_psi        :     25.67s CPU     25.90s WALL (    9676 calls)
     add_vuspsi   :      1.48s CPU      1.50s WALL (    9676 calls)
 
     incdrhoscf   :      2.74s CPU      2.82s WALL (     840 calls)
                                        0.00s GPU  (     840 calls)
     addusdbec    :      0.20s CPU      0.20s WALL (    1008 calls)
 
     drhodvus     :      0.00s CPU      0.00s WALL (       2 calls)
 
      General routines
     calbec       :      3.69s CPU      3.74s WALL (   22152 calls)
     fft          :      0.15s CPU      0.15s WALL (     541 calls)
     ffts         :      0.04s CPU      0.05s WALL (     186 calls)
     fftw         :     22.15s CPU     22.38s WALL (   82380 calls)
     davcio       :      0.14s CPU      0.20s WALL (    3236 calls)
     write_rec    :      0.00s CPU      0.04s WALL (      12 calls)
 
      Additional routines
     ch_psi       :     31.67s CPU     31.98s WALL (    9676 calls)
     last         :      4.13s CPU      4.19s WALL (    9676 calls)
     Hesh         :      0.20s CPU      0.20s WALL (    9676 calls)
     ch_psi_all_k :      3.89s CPU      3.94s WALL (    9676 calls)
                                        0.00s GPU  (    9676 calls)
     ch_psi_calbe :      1.59s CPU      1.61s WALL (    9676 calls)
                                        0.00s GPU  (    9676 calls)
     h_psi_bgrp   :     25.70s CPU     25.92s WALL (    9676 calls)
     h_psi        :     25.67s CPU     25.90s WALL (    9676 calls)
     h_psi:pot    :     25.56s CPU     25.78s WALL (    9676 calls)
     h_psi:calbec :      1.66s CPU      1.67s WALL (    9676 calls)
     s_psi_bgrp   :      3.43s CPU      3.47s WALL (   20192 calls)
     s_psi        :      3.15s CPU      3.20s WALL (   20192 calls)
 
 
     PHONON       :     45.11s CPU     45.88s WALL

 
   This run was terminated on:   1:51:40  27Dec2022            

=------------------------------------------------------------------------------=
   JOB DONE.
=------------------------------------------------------------------------------=
