
     Program PHONON v.7.1 starts on 27Dec2022 at  2:52:41 

     This program is part of the open-source Quantum ESPRESSO suite
     for quantum simulation of materials; please cite
         "P. Giannozzi et al., J. Phys.:Condens. Matter 21 395502 (2009);
         "P. Giannozzi et al., J. Phys.:Condens. Matter 29 465901 (2017);
         "P. Giannozzi et al., J. Chem. Phys. 152 154105 (2020);
          URL http://www.quantum-espresso.org", 
     in publications or presentations arising from this work. More details at
     http://www.quantum-espresso.org/quote

     Parallel version (MPI), running on     1 processors

     MPI processes distributed on     1 nodes
     9291 MiB available memory on the printing compute node when the environment starts
 
     Waiting for input...
     Reading input from standard input

     Reading xml data from directory:

     ./out/Si.save/
 
     Subspace diagonalization in iterative solution of the eigenvalue problem:
     a serial algorithm will be used


     IMPORTANT: XC functional enforced from input :
     Exchange-correlation= PBESOL
                           (   1   4  10   8   0   0   0)
     Any further DFT definition will be discarded
     Please, verify this is what you really want

 
     G-vector sticks info
     --------------------
     sticks:   dense  smooth     PW     G-vecs:    dense   smooth      PW
     Sum         859     859    253                16889    16889    2741
 
     Using Slab Decomposition
 
     Reading collected, re-writing distributed wavefunctions in ./out/

     Calculation of q =    0.0000000   0.0000000   0.0000000

     phonon at Gamma                                                            

     bravais-lattice index     =            2
     lattice parameter (alat)  =      10.2672  a.u.
     unit-cell volume          =     270.5802 (a.u.)^3
     number of atoms/cell      =            2
     number of atomic types    =            1
     kinetic-energy cut-off    =      60.0000  Ry
     charge density cut-off    =     240.0000  Ry
     convergence threshold     =      1.0E-14
     beta                      =       0.7000
     number of iterations used =            4
     Exchange-correlation= PBESOL
                           (   1   4  10   8   0   0   0)


     celldm(1)=   10.26720  celldm(2)=    0.00000  celldm(3)=    0.00000
     celldm(4)=    0.00000  celldm(5)=    0.00000  celldm(6)=    0.00000

     crystal axes: (cart. coord. in units of alat)
               a(1) = ( -0.5000  0.0000  0.5000 )  
               a(2) = (  0.0000  0.5000  0.5000 )  
               a(3) = ( -0.5000  0.5000  0.0000 )  

     reciprocal axes: (cart. coord. in units 2 pi/alat)
               b(1) = ( -1.0000 -1.0000  1.0000 )  
               b(2) = (  1.0000  1.0000  1.0000 )  
               b(3) = ( -1.0000  1.0000 -1.0000 )  


     Atoms inside the unit cell: 

     Cartesian axes

     site n.  atom      mass           positions (alat units)
        1     Si  28.0855   tau(    1) = (   -0.25000    0.25000    0.25000  )
        2     Si  28.0855   tau(    2) = (   -0.50000    0.50000    0.50000  )

     Computing dynamical matrix for 
                    q = (   0.0000000   0.0000000   0.0000000 )
 
     49 Sym.Ops. (with q -> -q+G )


     G cutoff =  640.8488  (  16889 G-vectors)     FFT grid: ( 36, 36, 36)
     number of k points=    10
                       cart. coord. in units 2pi/alat
        k(    1) = (  -0.1250000   0.1250000   0.1250000), wk =   0.0625000
        k(    2) = (  -0.3750000   0.3750000  -0.1250000), wk =   0.1875000
        k(    3) = (   0.3750000  -0.3750000   0.6250000), wk =   0.1875000
        k(    4) = (   0.1250000  -0.1250000   0.3750000), wk =   0.1875000
        k(    5) = (  -0.1250000   0.6250000   0.1250000), wk =   0.1875000
        k(    6) = (   0.6250000  -0.1250000   0.8750000), wk =   0.3750000
        k(    7) = (   0.3750000   0.1250000   0.6250000), wk =   0.3750000
        k(    8) = (  -0.1250000  -0.8750000   0.1250000), wk =   0.1875000
        k(    9) = (  -0.3750000   0.3750000   0.3750000), wk =   0.0625000
        k(   10) = (   0.3750000  -0.3750000   1.1250000), wk =   0.1875000

     PseudoPot. # 1 for Si read from file:
     ../pseudo/Si.pbesol-n-rrkjus_psl.1.0.0.UPF
     MD5 check sum: c4212819de858c94c3a1644338846ac9
     Pseudo is Ultrasoft + core correction, Zval =  4.0
     Generated using "atomic" code by A. Dal Corso  v.6.0 svn rev. 13079
     Using radial grid of 1141 points,  6 beta functions with: 
                l(1) =   0
                l(2) =   0
                l(3) =   1
                l(4) =   1
                l(5) =   2
                l(6) =   2
     Q(r) pseudized with 0 coefficients 


     Mode symmetry, O_h (m-3m)  point group:


     Atomic displacements:
     There are    2 irreducible representations

     Representation     1      3 modes -  To be done

     Representation     2      3 modes -  To be done



     Alpha used in Ewald sum =   2.5000
     PHONON       :      1.87s CPU      1.94s WALL



     Representation #   1 modes #   1   2   3

     Self-consistent Calculation

      iter #   1 total cpu time :     3.2 secs   av.it.:   5.4
      thresh= 1.000E-02 alpha_mix =  0.700 |ddv_scf|^2 =  3.115E-08

      iter #   2 total cpu time :     5.0 secs   av.it.:  10.8
      thresh= 1.765E-05 alpha_mix =  0.700 |ddv_scf|^2 =  1.890E-09

      iter #   3 total cpu time :     6.9 secs   av.it.:  10.6
      thresh= 4.347E-06 alpha_mix =  0.700 |ddv_scf|^2 =  9.832E-11

      iter #   4 total cpu time :     8.7 secs   av.it.:  10.3
      thresh= 9.916E-07 alpha_mix =  0.700 |ddv_scf|^2 =  1.477E-13

      iter #   5 total cpu time :    10.5 secs   av.it.:  11.2
      thresh= 3.844E-08 alpha_mix =  0.700 |ddv_scf|^2 =  2.067E-15

     End of self-consistent calculation

     Convergence has been achieved 


     Representation #   2 modes #   4   5   6

     Self-consistent Calculation

      iter #   1 total cpu time :    11.9 secs   av.it.:   5.6
      thresh= 1.000E-02 alpha_mix =  0.700 |ddv_scf|^2 =  2.907E-08

      iter #   2 total cpu time :    13.8 secs   av.it.:  10.8
      thresh= 1.705E-05 alpha_mix =  0.700 |ddv_scf|^2 =  2.026E-09

      iter #   3 total cpu time :    15.6 secs   av.it.:  10.8
      thresh= 4.501E-06 alpha_mix =  0.700 |ddv_scf|^2 =  9.341E-11

      iter #   4 total cpu time :    17.5 secs   av.it.:  10.9
      thresh= 9.665E-07 alpha_mix =  0.700 |ddv_scf|^2 =  2.403E-13

      iter #   5 total cpu time :    19.3 secs   av.it.:  10.9
      thresh= 4.902E-08 alpha_mix =  0.700 |ddv_scf|^2 =  5.862E-16

     End of self-consistent calculation

     Convergence has been achieved 
 
     Number of q in the star =    1
     List of q in the star:
          1   0.000000000   0.000000000   0.000000000

     Diagonalizing the dynamical matrix

     q = (    0.000000000   0.000000000   0.000000000 ) 

 **************************************************************************
     freq (    1) =      -0.669033 [THz] =     -22.316541 [cm-1]
     freq (    2) =      -0.669033 [THz] =     -22.316541 [cm-1]
     freq (    3) =      -0.669033 [THz] =     -22.316541 [cm-1]
     freq (    4) =      15.261049 [THz] =     509.053815 [cm-1]
     freq (    5) =      15.261049 [THz] =     509.053815 [cm-1]
     freq (    6) =      15.261049 [THz] =     509.053815 [cm-1]
 **************************************************************************

     Mode symmetry, O_h (m-3m)  point group:

     freq (   1-   3) =        -22.3  [cm-1]   --> T_1u G_15  G_4- I  
     freq (   4-   6) =        509.1  [cm-1]   --> T_2g G_25' G_5+ R  
 
     PHONON       :     19.03s CPU     19.41s WALL

     INITIALIZATION: 
     phq_setup    :      0.05s CPU      0.06s WALL (       1 calls)
     phq_init     :      1.44s CPU      1.45s WALL (       1 calls)
 
     phq_init     :      1.44s CPU      1.45s WALL (       1 calls)
     set_drhoc    :      0.38s CPU      0.38s WALL (       3 calls)
     init_vloc    :      0.00s CPU      0.00s WALL (       1 calls)
     init_us_1    :      0.24s CPU      0.24s WALL (       1 calls)
     init_us_2    :      0.10s CPU      0.10s WALL (     170 calls)
     newd         :      0.03s CPU      0.05s WALL (       1 calls)
     dvanqq       :      0.52s CPU      0.53s WALL (       1 calls)
     drho         :      0.38s CPU      0.39s WALL (       1 calls)
     drhous       :      0.16s CPU      0.17s WALL (       1 calls)
     nldyntot     :      0.00s CPU      0.00s WALL (       1 calls)
 
     DYNAMICAL MATRIX:
     dynmat0      :      0.29s CPU      0.29s WALL (       1 calls)
     phqscf       :     17.16s CPU     17.47s WALL (       1 calls)
     dynmatrix    :      0.00s CPU      0.00s WALL (       1 calls)
 
     phqscf       :     17.16s CPU     17.47s WALL (       1 calls)
     solve_linter :     17.08s CPU     17.38s WALL (       2 calls)
     drhodv       :      0.08s CPU      0.08s WALL (       2 calls)
 
     dynmat0      :      0.29s CPU      0.29s WALL (       1 calls)
     dynmat_us    :      0.03s CPU      0.03s WALL (       1 calls)
     d2ionq       :      0.00s CPU      0.00s WALL (       1 calls)
     dynmatcc     :      0.26s CPU      0.26s WALL (       1 calls)
 
     dynmat_us    :      0.03s CPU      0.03s WALL (       1 calls)
     addusdynmat  :      0.00s CPU      0.00s WALL (       1 calls)
 
     phqscf       :     17.16s CPU     17.47s WALL (       1 calls)
     solve_linter :     17.08s CPU     17.38s WALL (       2 calls)
 
     solve_linter :     17.08s CPU     17.38s WALL (       2 calls)
     dvqpsi_us    :      0.30s CPU      0.30s WALL (      60 calls)
                                        0.00s GPU  (      60 calls)
     sth_kernel   :     13.02s CPU     13.18s WALL (      10 calls)
     h_prec       :      0.01s CPU      0.01s WALL (     100 calls)
     apply_dpot_b :      0.69s CPU      0.69s WALL (     240 calls)
     ortho        :      0.13s CPU      0.13s WALL (     300 calls)
     cgsolve      :     11.07s CPU     11.19s WALL (     300 calls)
     incdrhoscf   :      0.96s CPU      0.98s WALL (     300 calls)
                                        0.00s GPU  (     300 calls)
     addusddens   :      1.07s CPU      1.08s WALL (      12 calls)
     dv_of_drho   :      0.20s CPU      0.22s WALL (      30 calls)
     mix_pot      :      0.02s CPU      0.08s WALL (      10 calls)
     psymdvscf    :      1.16s CPU      1.16s WALL (      10 calls)
     newdq        :      1.39s CPU      1.40s WALL (      10 calls)
     adddvscf     :      0.06s CPU      0.06s WALL (     240 calls)
     drhodvus     :      0.00s CPU      0.00s WALL (       2 calls)
 
     dvqpsi_us    :      0.30s CPU      0.30s WALL (      60 calls)
                                        0.00s GPU  (      60 calls)
     dvqpsi_us_on :      0.10s CPU      0.10s WALL (      60 calls)
 
     cgsolve      :     11.07s CPU     11.19s WALL (     300 calls)
     ch_psi       :     10.80s CPU     10.92s WALL (    3454 calls)
 
     ch_psi       :     10.80s CPU     10.92s WALL (    3454 calls)
     h_psi        :      8.64s CPU      8.73s WALL (    3454 calls)
     last         :      1.48s CPU      1.50s WALL (    3454 calls)
 
     h_psi        :      8.64s CPU      8.73s WALL (    3454 calls)
     add_vuspsi   :      0.54s CPU      0.55s WALL (    3454 calls)
 
     incdrhoscf   :      0.96s CPU      0.98s WALL (     300 calls)
                                        0.00s GPU  (     300 calls)
     addusdbec    :      0.07s CPU      0.07s WALL (     360 calls)
 
     drhodvus     :      0.00s CPU      0.00s WALL (       2 calls)
 
      General routines
     calbec       :      1.30s CPU      1.32s WALL (    7908 calls)
     fft          :      0.14s CPU      0.15s WALL (     541 calls)
     ffts         :      0.02s CPU      0.02s WALL (      78 calls)
     fftw         :      7.36s CPU      7.43s WALL (   29388 calls)
     davcio       :      0.05s CPU      0.11s WALL (    1220 calls)
     write_rec    :      0.00s CPU      0.04s WALL (      12 calls)
 
      Additional routines
     ch_psi       :     10.80s CPU     10.92s WALL (    3454 calls)
     last         :      1.48s CPU      1.50s WALL (    3454 calls)
     Hesh         :      0.07s CPU      0.07s WALL (    3454 calls)
     ch_psi_all_k :      1.39s CPU      1.41s WALL (    3454 calls)
                                        0.00s GPU  (    3454 calls)
     ch_psi_calbe :      0.56s CPU      0.57s WALL (    3454 calls)
                                        0.00s GPU  (    3454 calls)
     h_psi_bgrp   :      8.65s CPU      8.73s WALL (    3454 calls)
     h_psi        :      8.64s CPU      8.73s WALL (    3454 calls)
     h_psi:pot    :      8.60s CPU      8.69s WALL (    3454 calls)
     h_psi:calbec :      0.59s CPU      0.59s WALL (    3454 calls)
     s_psi_bgrp   :      1.25s CPU      1.27s WALL (    7208 calls)
     s_psi        :      1.15s CPU      1.17s WALL (    7208 calls)
 
 
     PHONON       :     19.03s CPU     19.41s WALL

 
   This run was terminated on:   2:53: 1  27Dec2022            

=------------------------------------------------------------------------------=
   JOB DONE.
=------------------------------------------------------------------------------=
