 
:: initializing oneAPI environment ...
   -bash: BASH_VERSION = 4.2.46(2)-release
   args: Using "$@" for setvars.sh arguments: 
:: advisor -- latest
:: ccl -- latest
:: clck -- latest
:: compiler -- latest
:: dal -- latest
:: debugger -- latest
:: dev-utilities -- latest
:: dnnl -- latest
:: dpcpp-ct -- latest
:: dpl -- latest
:: inspector -- latest
:: intelpython -- latest
:: ipp -- latest
:: ippcp -- latest
:: itac -- latest
:: mkl -- latest
:: mpi -- latest
:: tbb -- latest
:: vpl -- latest
:: vtune -- latest
:: oneAPI environment initialized ::
 
rm: cannot remove 'phonon.o*': No such file or directory

     Program PWSCF v.7.1 starts on 27Dec2022 at  2:40:30 

     This program is part of the open-source Quantum ESPRESSO suite
     for quantum simulation of materials; please cite
         "P. Giannozzi et al., J. Phys.:Condens. Matter 21 395502 (2009);
         "P. Giannozzi et al., J. Phys.:Condens. Matter 29 465901 (2017);
         "P. Giannozzi et al., J. Chem. Phys. 152 154105 (2020);
          URL http://www.quantum-espresso.org", 
     in publications or presentations arising from this work. More details at
     http://www.quantum-espresso.org/quote

     Parallel version (MPI), running on    24 processors

     MPI processes distributed on     1 nodes
     105380 MiB available memory on the printing compute node when the environment starts
 
     Waiting for input...
     Reading input from standard input
Warning: card &CELL ignored
Warning: card / ignored

     Current dimensions of program PWSCF are:
     Max number of different atomic species (ntypx) = 10
     Max number of k-points (npk) =  40000
     Max angular momentum in pseudopotentials (lmaxx) =  4
 
     K-points division:     npool     =       2
     R & G space division:  proc/nbgrp/npool/nimage =      12
     Subspace diagonalization in iterative solution of the eigenvalue problem:
     a serial algorithm will be used

 
     Parallelization info
     --------------------
     sticks:   dense  smooth     PW     G-vecs:    dense   smooth      PW
     Min          71      71     21                 1407     1407     228
     Max          72      72     22                 1410     1410     232
     Sum         859     859    253                16889    16889    2741
 
     Using Slab Decomposition
 


     bravais-lattice index     =            2
     lattice parameter (alat)  =      10.2672  a.u.
     unit-cell volume          =     270.5802 (a.u.)^3
     number of atoms/cell      =            2
     number of atomic types    =            1
     number of electrons       =         8.00
     number of Kohn-Sham states=            4
     kinetic-energy cutoff     =      60.0000  Ry
     charge density cutoff     =     240.0000  Ry
     scf convergence threshold =      1.0E-06
     mixing beta               =       0.7000
     number of iterations used =            8  plain     mixing
     Exchange-correlation= PBESOL
                           (   1   4  10   8   0   0   0)

     celldm(1)=  10.267200  celldm(2)=   0.000000  celldm(3)=   0.000000
     celldm(4)=   0.000000  celldm(5)=   0.000000  celldm(6)=   0.000000

     crystal axes: (cart. coord. in units of alat)
               a(1) = (  -0.500000   0.000000   0.500000 )  
               a(2) = (   0.000000   0.500000   0.500000 )  
               a(3) = (  -0.500000   0.500000   0.000000 )  

     reciprocal axes: (cart. coord. in units 2 pi/alat)
               b(1) = ( -1.000000 -1.000000  1.000000 )  
               b(2) = (  1.000000  1.000000  1.000000 )  
               b(3) = ( -1.000000  1.000000 -1.000000 )  


     PseudoPot. # 1 for Si read from file:
     ../pseudo/Si.pbesol-n-rrkjus_psl.1.0.0.UPF
     MD5 check sum: c4212819de858c94c3a1644338846ac9
     Pseudo is Ultrasoft + core correction, Zval =  4.0
     Generated using "atomic" code by A. Dal Corso  v.6.0 svn rev. 13079
     Using radial grid of 1141 points,  6 beta functions with: 
                l(1) =   0
                l(2) =   0
                l(3) =   1
                l(4) =   1
                l(5) =   2
                l(6) =   2
     Q(r) pseudized with 0 coefficients 


     atomic species   valence    mass     pseudopotential
        Si             4.00    28.08550     Si( 1.00)

     48 Sym. Ops., with inversion, found (24 have fractional translation)



   Cartesian axes

     site n.     atom                  positions (alat units)
         1           Si  tau(   1) = (  -0.2500000   0.2500000   0.2500000  )
         2           Si  tau(   2) = (  -0.5000000   0.5000000   0.5000000  )

     number of k points=    10
                       cart. coord. in units 2pi/alat
        k(    1) = (  -0.1250000   0.1250000   0.1250000), wk =   0.0625000
        k(    2) = (  -0.3750000   0.3750000  -0.1250000), wk =   0.1875000
        k(    3) = (   0.3750000  -0.3750000   0.6250000), wk =   0.1875000
        k(    4) = (   0.1250000  -0.1250000   0.3750000), wk =   0.1875000
        k(    5) = (  -0.1250000   0.6250000   0.1250000), wk =   0.1875000
        k(    6) = (   0.6250000  -0.1250000   0.8750000), wk =   0.3750000
        k(    7) = (   0.3750000   0.1250000   0.6250000), wk =   0.3750000
        k(    8) = (  -0.1250000  -0.8750000   0.1250000), wk =   0.1875000
        k(    9) = (  -0.3750000   0.3750000   0.3750000), wk =   0.0625000
        k(   10) = (   0.3750000  -0.3750000   1.1250000), wk =   0.1875000

     Dense  grid:    16889 G-vectors     FFT dimensions: (  36,  36,  36)

     Estimated max dynamical RAM per process >       4.29 MB

     Estimated total dynamical RAM >      98.89 MB

     Initial potential from superposition of free atoms

     starting charge       7.9989, renormalised to       8.0000
     Starting wfcs are    8 randomized atomic wfcs

     total cpu time spent up to now is        0.3 secs

     Self-consistent Calculation

     iteration #  1     ecut=    60.00 Ry     beta= 0.70
     Davidson diagonalization with overlap
     ethr =  1.00E-02,  avg # of iterations =  2.0

     Threshold (ethr) on eigenvalues was too large:
     Diagonalizing with lowered threshold

     Davidson diagonalization with overlap
     ethr =  6.02E-04,  avg # of iterations =  1.5

     total cpu time spent up to now is        0.3 secs

     total energy              =     -22.67477991 Ry
     estimated scf accuracy    <       0.05249218 Ry

     iteration #  2     ecut=    60.00 Ry     beta= 0.70
     Davidson diagonalization with overlap
     ethr =  6.56E-04,  avg # of iterations =  1.0

     total cpu time spent up to now is        0.3 secs

     total energy              =     -22.67673421 Ry
     estimated scf accuracy    <       0.00245388 Ry

     iteration #  3     ecut=    60.00 Ry     beta= 0.70
     Davidson diagonalization with overlap
     ethr =  3.07E-05,  avg # of iterations =  2.9

     total cpu time spent up to now is        0.3 secs

     total energy              =     -22.67762701 Ry
     estimated scf accuracy    <       0.00012885 Ry

     iteration #  4     ecut=    60.00 Ry     beta= 0.70
     Davidson diagonalization with overlap
     ethr =  1.61E-06,  avg # of iterations =  4.2

     total cpu time spent up to now is        0.4 secs

     total energy              =     -22.67768938 Ry
     estimated scf accuracy    <       0.00002352 Ry

     iteration #  5     ecut=    60.00 Ry     beta= 0.70
     Davidson diagonalization with overlap
     ethr =  2.94E-07,  avg # of iterations =  3.1

     total cpu time spent up to now is        0.4 secs

     End of self-consistent calculation

          k =-0.1250 0.1250 0.1250 (  2112 PWs)   bands (ev):

    -5.6309   4.5315   5.8526   5.8526

          k =-0.3750 0.3750-0.1250 (  2117 PWs)   bands (ev):

    -4.5817   1.4981   3.8064   5.3682

          k = 0.3750-0.3750 0.6250 (  2122 PWs)   bands (ev):

    -3.4052  -0.6377   3.8420   4.5729

          k = 0.1250-0.1250 0.3750 (  2117 PWs)   bands (ev):

    -5.0922   2.9052   4.8135   4.8872

          k =-0.1250 0.6250 0.1250 (  2120 PWs)   bands (ev):

    -4.0392   1.1961   3.4438   3.9198

          k = 0.6250-0.1250 0.8750 (  2142 PWs)   bands (ev):

    -2.3545  -0.7960   2.0345   3.1508

          k = 0.3750 0.1250 0.6250 (  2117 PWs)   bands (ev):

    -3.6103   0.2858   2.7867   4.1956

          k =-0.1250-0.8750 0.1250 (  2127 PWs)   bands (ev):

    -2.5352  -0.6922   2.6705   3.4435

          k =-0.3750 0.3750 0.3750 (  2126 PWs)   bands (ev):

    -4.1355   0.1659   5.0531   5.0531

          k = 0.3750-0.3750 1.1250 (  2125 PWs)   bands (ev):

    -2.9002  -0.5161   2.1063   4.2456

     highest occupied level (ev):     5.8526

!    total energy              =     -22.67769697 Ry
     estimated scf accuracy    <       0.00000037 Ry

     The total energy is the sum of the following terms:
     one-electron contribution =       5.16696111 Ry
     hartree contribution      =       1.08132399 Ry
     xc contribution           =     -12.13683435 Ry
     ewald contribution        =     -16.78914772 Ry

     convergence has been achieved in   5 iterations

     Writing all to output data dir ./out/Si.save/
 
     init_run     :      0.11s CPU      0.14s WALL (       1 calls)
     electrons    :      0.13s CPU      0.15s WALL (       1 calls)

     Called by init_run:
     wfcinit      :      0.01s CPU      0.01s WALL (       1 calls)
     potinit      :      0.01s CPU      0.01s WALL (       1 calls)
     hinit0       :      0.09s CPU      0.11s WALL (       1 calls)

     Called by electrons:
     c_bands      :      0.05s CPU      0.05s WALL (       6 calls)
     sum_band     :      0.02s CPU      0.02s WALL (       6 calls)
     v_of_rho     :      0.01s CPU      0.01s WALL (       6 calls)
     newd         :      0.01s CPU      0.01s WALL (       6 calls)
     mix_rho      :      0.00s CPU      0.00s WALL (       6 calls)

     Called by c_bands:
     init_us_2    :      0.00s CPU      0.00s WALL (      65 calls)
     init_us_2:cp :      0.00s CPU      0.00s WALL (      65 calls)
     cegterg      :      0.04s CPU      0.04s WALL (      30 calls)

     Called by *egterg:
     cdiaghg      :      0.00s CPU      0.00s WALL (     100 calls)
     h_psi        :      0.03s CPU      0.03s WALL (     110 calls)
     s_psi        :      0.00s CPU      0.00s WALL (     110 calls)
     g_psi        :      0.00s CPU      0.00s WALL (      75 calls)

     Called by h_psi:
     h_psi:calbec :      0.00s CPU      0.00s WALL (     110 calls)
     vloc_psi     :      0.03s CPU      0.03s WALL (     110 calls)
     add_vuspsi   :      0.00s CPU      0.00s WALL (     110 calls)

     General routines
     calbec       :      0.00s CPU      0.00s WALL (     140 calls)
     fft          :      0.07s CPU      0.09s WALL (      67 calls)
     ffts         :      0.00s CPU      0.00s WALL (       6 calls)
     fftw         :      0.03s CPU      0.03s WALL (     898 calls)
 
     Parallel routines
 
     PWSCF        :      0.35s CPU      0.46s WALL

 
   This run was terminated on:   2:40:31  27Dec2022            

=------------------------------------------------------------------------------=
   JOB DONE.
=------------------------------------------------------------------------------=

     Program PHONON v.7.1 starts on 27Dec2022 at  2:40:32 

     This program is part of the open-source Quantum ESPRESSO suite
     for quantum simulation of materials; please cite
         "P. Giannozzi et al., J. Phys.:Condens. Matter 21 395502 (2009);
         "P. Giannozzi et al., J. Phys.:Condens. Matter 29 465901 (2017);
         "P. Giannozzi et al., J. Chem. Phys. 152 154105 (2020);
          URL http://www.quantum-espresso.org", 
     in publications or presentations arising from this work. More details at
     http://www.quantum-espresso.org/quote

     Parallel version (MPI), running on    24 processors

     MPI processes distributed on     1 nodes
     105366 MiB available memory on the printing compute node when the environment starts
 
     Waiting for input...
     Reading input from standard input
      Title line not specified: using 'default'.

     Reading xml data from directory:

     ./out/Si.save/
 
     K-points division:     npool     =       2
     R & G space division:  proc/nbgrp/npool/nimage =      12
     Subspace diagonalization in iterative solution of the eigenvalue problem:
     a serial algorithm will be used


     IMPORTANT: XC functional enforced from input :
     Exchange-correlation= PBESOL
                           (   1   4  10   8   0   0   0)
     Any further DFT definition will be discarded
     Please, verify this is what you really want

 
     Parallelization info
     --------------------
     sticks:   dense  smooth     PW     G-vecs:    dense   smooth      PW
     Min          71      71     21                 1407     1407     228
     Max          72      72     22                 1410     1410     232
     Sum         859     859    253                16889    16889    2741
 
     Using Slab Decomposition
 
     Reading collected, re-writing distributed wavefunctions in ./out/

     Calculation of q =    0.0000000   0.0000000   0.0000000

     default                                                                    

     bravais-lattice index     =            2
     lattice parameter (alat)  =      10.2672  a.u.
     unit-cell volume          =     270.5802 (a.u.)^3
     number of atoms/cell      =            2
     number of atomic types    =            1
     kinetic-energy cut-off    =      60.0000  Ry
     charge density cut-off    =     240.0000  Ry
     convergence threshold     =      1.0E-14
     beta                      =       0.7000
     number of iterations used =            4
     Exchange-correlation= PBESOL
                           (   1   4  10   8   0   0   0)


     celldm(1)=   10.26720  celldm(2)=    0.00000  celldm(3)=    0.00000
     celldm(4)=    0.00000  celldm(5)=    0.00000  celldm(6)=    0.00000

     crystal axes: (cart. coord. in units of alat)
               a(1) = ( -0.5000  0.0000  0.5000 )  
               a(2) = (  0.0000  0.5000  0.5000 )  
               a(3) = ( -0.5000  0.5000  0.0000 )  

     reciprocal axes: (cart. coord. in units 2 pi/alat)
               b(1) = ( -1.0000 -1.0000  1.0000 )  
               b(2) = (  1.0000  1.0000  1.0000 )  
               b(3) = ( -1.0000  1.0000 -1.0000 )  


     Atoms inside the unit cell: 

     Cartesian axes

     site n.  atom      mass           positions (alat units)
        1     Si  28.0855   tau(    1) = (   -0.25000    0.25000    0.25000  )
        2     Si  28.0855   tau(    2) = (   -0.50000    0.50000    0.50000  )

     Computing dynamical matrix for 
                    q = (   0.0000000   0.0000000   0.0000000 )
 
     49 Sym.Ops. (with q -> -q+G )


     G cutoff =  640.8488  (   1410 G-vectors)     FFT grid: ( 36, 36, 36)
     number of k points=    10
                       cart. coord. in units 2pi/alat
        k(    1) = (  -0.1250000   0.1250000   0.1250000), wk =   0.0625000
        k(    2) = (  -0.3750000   0.3750000  -0.1250000), wk =   0.1875000
        k(    3) = (   0.3750000  -0.3750000   0.6250000), wk =   0.1875000
        k(    4) = (   0.1250000  -0.1250000   0.3750000), wk =   0.1875000
        k(    5) = (  -0.1250000   0.6250000   0.1250000), wk =   0.1875000
        k(    6) = (   0.6250000  -0.1250000   0.8750000), wk =   0.3750000
        k(    7) = (   0.3750000   0.1250000   0.6250000), wk =   0.3750000
        k(    8) = (  -0.1250000  -0.8750000   0.1250000), wk =   0.1875000
        k(    9) = (  -0.3750000   0.3750000   0.3750000), wk =   0.0625000
        k(   10) = (   0.3750000  -0.3750000   1.1250000), wk =   0.1875000

     PseudoPot. # 1 for Si read from file:
     ../pseudo/Si.pbesol-n-rrkjus_psl.1.0.0.UPF
     MD5 check sum: c4212819de858c94c3a1644338846ac9
     Pseudo is Ultrasoft + core correction, Zval =  4.0
     Generated using "atomic" code by A. Dal Corso  v.6.0 svn rev. 13079
     Using radial grid of 1141 points,  6 beta functions with: 
                l(1) =   0
                l(2) =   0
                l(3) =   1
                l(4) =   1
                l(5) =   2
                l(6) =   2
     Q(r) pseudized with 0 coefficients 


     Mode symmetry, O_h (m-3m)  point group:


     Atomic displacements:
     There are    2 irreducible representations

     Representation     1      3 modes -  To be done

     Representation     2      3 modes -  To be done



     Alpha used in Ewald sum =   2.5000
     PHONON       :      0.28s CPU      0.42s WALL



     Representation #   1 modes #   1   2   3

     Self-consistent Calculation

      iter #   1 total cpu time :     0.8 secs   av.it.:   5.4
      thresh= 1.000E-02 alpha_mix =  0.700 |ddv_scf|^2 =  3.114E-08

      iter #   2 total cpu time :     1.3 secs   av.it.:  10.8
      thresh= 1.765E-05 alpha_mix =  0.700 |ddv_scf|^2 =  1.889E-09

      iter #   3 total cpu time :     1.8 secs   av.it.:  10.6
      thresh= 4.347E-06 alpha_mix =  0.700 |ddv_scf|^2 =  9.831E-11

      iter #   4 total cpu time :     2.3 secs   av.it.:  10.3
      thresh= 9.915E-07 alpha_mix =  0.700 |ddv_scf|^2 =  1.477E-13

      iter #   5 total cpu time :     2.6 secs   av.it.:  11.2
      thresh= 3.843E-08 alpha_mix =  0.700 |ddv_scf|^2 =  2.066E-15

     End of self-consistent calculation

     Convergence has been achieved 


     Representation #   2 modes #   4   5   6

     Self-consistent Calculation

      iter #   1 total cpu time :     3.3 secs   av.it.:   5.6
      thresh= 1.000E-02 alpha_mix =  0.700 |ddv_scf|^2 =  2.906E-08

      iter #   2 total cpu time :     3.7 secs   av.it.:  10.8
      thresh= 1.705E-05 alpha_mix =  0.700 |ddv_scf|^2 =  2.025E-09

      iter #   3 total cpu time :     4.3 secs   av.it.:  10.8
      thresh= 4.500E-06 alpha_mix =  0.700 |ddv_scf|^2 =  9.340E-11

      iter #   4 total cpu time :     4.7 secs   av.it.:  10.9
      thresh= 9.664E-07 alpha_mix =  0.700 |ddv_scf|^2 =  2.402E-13

      iter #   5 total cpu time :     5.1 secs   av.it.:  10.9
      thresh= 4.901E-08 alpha_mix =  0.700 |ddv_scf|^2 =  5.858E-16

     End of self-consistent calculation

     Convergence has been achieved 
 
     Number of q in the star =    1
     List of q in the star:
          1   0.000000000   0.000000000   0.000000000

     Diagonalizing the dynamical matrix

     q = (    0.000000000   0.000000000   0.000000000 ) 

 **************************************************************************
     freq (    1) =      -0.669033 [THz] =     -22.316543 [cm-1]
     freq (    2) =      -0.669033 [THz] =     -22.316543 [cm-1]
     freq (    3) =      -0.669033 [THz] =     -22.316543 [cm-1]
     freq (    4) =      15.261049 [THz] =     509.053811 [cm-1]
     freq (    5) =      15.261049 [THz] =     509.053811 [cm-1]
     freq (    6) =      15.261049 [THz] =     509.053811 [cm-1]
 **************************************************************************

     Mode symmetry, O_h (m-3m)  point group:

     freq (   1-   3) =        -22.3  [cm-1]   --> T_1u G_15  G_4- I  
     freq (   4-   6) =        509.1  [cm-1]   --> T_2g G_25' G_5+ R  
 
     PHONON       :      3.31s CPU      5.56s WALL

     INITIALIZATION: 
     phq_setup    :      0.01s CPU      0.01s WALL (       1 calls)
     phq_init     :      0.10s CPU      0.10s WALL (       1 calls)
 
     phq_init     :      0.10s CPU      0.10s WALL (       1 calls)
     set_drhoc    :      0.03s CPU      0.03s WALL (       3 calls)
     init_vloc    :      0.00s CPU      0.00s WALL (       1 calls)
     init_us_1    :      0.05s CPU      0.05s WALL (       1 calls)
     init_us_2    :      0.00s CPU      0.00s WALL (      85 calls)
     newd         :      0.00s CPU      0.00s WALL (       1 calls)
     dvanqq       :      0.03s CPU      0.03s WALL (       1 calls)
     drho         :      0.03s CPU      0.03s WALL (       1 calls)
     drhous       :      0.01s CPU      0.01s WALL (       1 calls)
     nldyntot     :      0.00s CPU      0.00s WALL (       1 calls)
 
     DYNAMICAL MATRIX:
     dynmat0      :      0.03s CPU      0.03s WALL (       1 calls)
     phqscf       :      3.01s CPU      4.95s WALL (       1 calls)
     dynmatrix    :      0.02s CPU      0.02s WALL (       1 calls)
 
     phqscf       :      3.01s CPU      4.95s WALL (       1 calls)
     solve_linter :      3.00s CPU      4.59s WALL (       2 calls)
     drhodv       :      0.00s CPU      0.00s WALL (       2 calls)
 
     dynmat0      :      0.03s CPU      0.03s WALL (       1 calls)
     dynmat_us    :      0.00s CPU      0.00s WALL (       1 calls)
     d2ionq       :      0.00s CPU      0.00s WALL (       1 calls)
     dynmatcc     :      0.02s CPU      0.02s WALL (       1 calls)
 
     dynmat_us    :      0.00s CPU      0.00s WALL (       1 calls)
     addusdynmat  :      0.00s CPU      0.00s WALL (       1 calls)
 
     phqscf       :      3.01s CPU      4.95s WALL (       1 calls)
     solve_linter :      3.00s CPU      4.59s WALL (       2 calls)
 
     solve_linter :      3.00s CPU      4.59s WALL (       2 calls)
     dvqpsi_us    :      0.05s CPU      0.05s WALL (      30 calls)
                                        0.00s GPU  (      30 calls)
     sth_kernel   :      0.74s CPU      0.80s WALL (      10 calls)
     h_prec       :      0.00s CPU      0.00s WALL (      50 calls)
     apply_dpot_b :      0.03s CPU      0.03s WALL (     120 calls)
     ortho        :      0.01s CPU      0.02s WALL (     150 calls)
     cgsolve      :      0.57s CPU      0.61s WALL (     150 calls)
     incdrhoscf   :      0.06s CPU      0.07s WALL (     150 calls)
                                        0.00s GPU  (     150 calls)
     addusddens   :      0.08s CPU      0.08s WALL (      12 calls)
     dv_of_drho   :      0.02s CPU      0.02s WALL (      30 calls)
     mix_pot      :      0.16s CPU      0.84s WALL (      10 calls)
     psymdvscf    :      1.22s CPU      1.23s WALL (      10 calls)
     newdq        :      0.24s CPU      0.24s WALL (      10 calls)
     adddvscf     :      0.00s CPU      0.00s WALL (     120 calls)
     drhodvus     :      0.00s CPU      0.00s WALL (       2 calls)
 
     dvqpsi_us    :      0.05s CPU      0.05s WALL (      30 calls)
                                        0.00s GPU  (      30 calls)
     dvqpsi_us_on :      0.01s CPU      0.01s WALL (      30 calls)
 
     cgsolve      :      0.57s CPU      0.61s WALL (     150 calls)
     ch_psi       :      0.55s CPU      0.58s WALL (    1815 calls)
 
     ch_psi       :      0.55s CPU      0.58s WALL (    1815 calls)
     h_psi        :      0.45s CPU      0.48s WALL (    1815 calls)
     last         :      0.07s CPU      0.08s WALL (    1815 calls)
 
     h_psi        :      0.45s CPU      0.48s WALL (    1815 calls)
     add_vuspsi   :      0.02s CPU      0.02s WALL (    1815 calls)
 
     incdrhoscf   :      0.06s CPU      0.07s WALL (     150 calls)
                                        0.00s GPU  (     150 calls)
     addusdbec    :      0.00s CPU      0.00s WALL (     180 calls)
 
     drhodvus     :      0.00s CPU      0.00s WALL (       2 calls)
 
      General routines
     calbec       :      0.06s CPU      0.07s WALL (    4130 calls)
     fft          :      0.13s CPU      0.21s WALL (     541 calls)
     ffts         :      0.03s CPU      0.03s WALL (      48 calls)
     fftw         :      0.43s CPU      0.46s WALL (   15204 calls)
     davcio       :      0.01s CPU      0.03s WALL (     660 calls)
     write_rec    :      0.00s CPU      1.13s WALL (      12 calls)
 
      Additional routines
     ch_psi       :      0.55s CPU      0.58s WALL (    1815 calls)
     last         :      0.07s CPU      0.08s WALL (    1815 calls)
     Hesh         :      0.00s CPU      0.00s WALL (    1815 calls)
     ch_psi_all_k :      0.06s CPU      0.07s WALL (    1815 calls)
                                        0.00s GPU  (    1815 calls)
     ch_psi_calbe :      0.03s CPU      0.03s WALL (    1815 calls)
                                        0.00s GPU  (    1815 calls)
     h_psi_bgrp   :      0.45s CPU      0.48s WALL (    1815 calls)
     h_psi        :      0.45s CPU      0.48s WALL (    1815 calls)
     h_psi:pot    :      0.44s CPU      0.47s WALL (    1815 calls)
     h_psi:calbec :      0.03s CPU      0.03s WALL (    1815 calls)
     s_psi_bgrp   :      0.04s CPU      0.04s WALL (    3780 calls)
     s_psi        :      0.03s CPU      0.03s WALL (    3780 calls)
 
 
     PHONON       :      3.31s CPU      5.56s WALL

 
   This run was terminated on:   2:40:38  27Dec2022            

=------------------------------------------------------------------------------=
   JOB DONE.
=------------------------------------------------------------------------------=

     Program PHONON v.7.1 starts on 27Dec2022 at  2:40:40 

     This program is part of the open-source Quantum ESPRESSO suite
     for quantum simulation of materials; please cite
         "P. Giannozzi et al., J. Phys.:Condens. Matter 21 395502 (2009);
         "P. Giannozzi et al., J. Phys.:Condens. Matter 29 465901 (2017);
         "P. Giannozzi et al., J. Chem. Phys. 152 154105 (2020);
          URL http://www.quantum-espresso.org", 
     in publications or presentations arising from this work. More details at
     http://www.quantum-espresso.org/quote

     Parallel version (MPI), running on    24 processors

     MPI processes distributed on     1 nodes
     105376 MiB available memory on the printing compute node when the environment starts
 
     Waiting for input...
     Reading input from standard input
      Title line not specified: using 'default'.

     Reading xml data from directory:

     ./out/Si.save/
 
     K-points division:     npool     =       2
     R & G space division:  proc/nbgrp/npool/nimage =      12
     Subspace diagonalization in iterative solution of the eigenvalue problem:
     a serial algorithm will be used


     IMPORTANT: XC functional enforced from input :
     Exchange-correlation= PBESOL
                           (   1   4  10   8   0   0   0)
     Any further DFT definition will be discarded
     Please, verify this is what you really want

 
     Parallelization info
     --------------------
     sticks:   dense  smooth     PW     G-vecs:    dense   smooth      PW
     Min          71      71     21                 1407     1407     228
     Max          72      72     22                 1410     1410     232
     Sum         859     859    253                16889    16889    2741
 
     Using Slab Decomposition
 
     Reading collected, re-writing distributed wavefunctions in ./out/


     Dynamical matrices for ( 2, 2, 2)  uniform grid of q-points
     (   3 q-points):
       N         xq(1)         xq(2)         xq(3) 
       1   0.000000000   0.000000000   0.000000000
       2   0.500000000  -0.500000000   0.500000000
       3   0.000000000  -1.000000000   0.000000000

     Calculation of q =    0.0000000   0.0000000   0.0000000

     default                                                                    

     bravais-lattice index     =            2
     lattice parameter (alat)  =      10.2672  a.u.
     unit-cell volume          =     270.5802 (a.u.)^3
     number of atoms/cell      =            2
     number of atomic types    =            1
     kinetic-energy cut-off    =      60.0000  Ry
     charge density cut-off    =     240.0000  Ry
     convergence threshold     =      1.0E-14
     beta                      =       0.7000
     number of iterations used =            4
     Exchange-correlation= PBESOL
                           (   1   4  10   8   0   0   0)


     celldm(1)=   10.26720  celldm(2)=    0.00000  celldm(3)=    0.00000
     celldm(4)=    0.00000  celldm(5)=    0.00000  celldm(6)=    0.00000

     crystal axes: (cart. coord. in units of alat)
               a(1) = ( -0.5000  0.0000  0.5000 )  
               a(2) = (  0.0000  0.5000  0.5000 )  
               a(3) = ( -0.5000  0.5000  0.0000 )  

     reciprocal axes: (cart. coord. in units 2 pi/alat)
               b(1) = ( -1.0000 -1.0000  1.0000 )  
               b(2) = (  1.0000  1.0000  1.0000 )  
               b(3) = ( -1.0000  1.0000 -1.0000 )  


     Atoms inside the unit cell: 

     Cartesian axes

     site n.  atom      mass           positions (alat units)
        1     Si  28.0855   tau(    1) = (   -0.25000    0.25000    0.25000  )
        2     Si  28.0855   tau(    2) = (   -0.50000    0.50000    0.50000  )

     Computing dynamical matrix for 
                    q = (   0.0000000   0.0000000   0.0000000 )
 
     49 Sym.Ops. (with q -> -q+G )


     G cutoff =  640.8488  (   1410 G-vectors)     FFT grid: ( 36, 36, 36)
     number of k points=    10

     PseudoPot. # 1 for Si read from file:
     ../pseudo/Si.pbesol-n-rrkjus_psl.1.0.0.UPF
     MD5 check sum: c4212819de858c94c3a1644338846ac9
     Pseudo is Ultrasoft + core correction, Zval =  4.0
     Generated using "atomic" code by A. Dal Corso  v.6.0 svn rev. 13079
     Using radial grid of 1141 points,  6 beta functions with: 
                l(1) =   0
                l(2) =   0
                l(3) =   1
                l(4) =   1
                l(5) =   2
                l(6) =   2
     Q(r) pseudized with 0 coefficients 


     Mode symmetry, O_h (m-3m)  point group:


     Electric field:
     Dielectric constant
     Born effective charges in two ways 


     Atomic displacements:
     There are    2 irreducible representations

     Representation     1      3 modes -  To be done

     Representation     2      3 modes -  To be done



     Alpha used in Ewald sum =   2.5000
     PHONON       :      0.31s CPU      0.50s WALL


     Electric Fields Calculation

      iter #   1 total cpu time :     0.8 secs   av.it.:   6.5
      thresh= 1.000E-02 alpha_mix =  0.700 |ddv_scf|^2 =  1.519E-07

      iter #   2 total cpu time :     1.2 secs   av.it.:  11.1
      thresh= 3.897E-05 alpha_mix =  0.700 |ddv_scf|^2 =  6.980E-09

      iter #   3 total cpu time :     1.8 secs   av.it.:  10.9
      thresh= 8.355E-06 alpha_mix =  0.700 |ddv_scf|^2 =  2.013E-10

      iter #   4 total cpu time :     2.2 secs   av.it.:  10.9
      thresh= 1.419E-06 alpha_mix =  0.700 |ddv_scf|^2 =  1.614E-12

      iter #   5 total cpu time :     2.5 secs   av.it.:  10.6
      thresh= 1.270E-07 alpha_mix =  0.700 |ddv_scf|^2 =  6.009E-16

     End of electric fields calculation

          Dielectric constant in cartesian axis 

          (      14.376003756       0.000000000       0.000000000 )
          (       0.000000000      14.376003756       0.000000000 )
          (       0.000000000       0.000000000      14.376003756 )

          Effective charges (d Force / dE) in cartesian axis without acoustic sum rule applied (asr)

           atom      1   Si Mean Z*:       -0.08618
      Ex  (       -0.08618       -0.00000        0.00000 )
      Ey  (       -0.00000       -0.08618       -0.00000 )
      Ez  (       -0.00000       -0.00000       -0.08618 )
           atom      2   Si Mean Z*:       -0.08618
      Ex  (       -0.08618        0.00000       -0.00000 )
      Ey  (       -0.00000       -0.08618        0.00000 )
      Ez  (        0.00000        0.00000       -0.08618 )

          Effective charges Sum: Mean:       -0.17236
             -0.17236       -0.00000        0.00000
             -0.00000       -0.17236       -0.00000
              0.00000        0.00000       -0.17236

          Effective charges (d Force / dE) in cartesian axis with asr applied: 
           atom      1   Si Mean Z*:        0.00000
      E*x (        0.00000       -0.00000        0.00000 )
      E*y (        0.00000        0.00000       -0.00000 )
      E*z (       -0.00000       -0.00000        0.00000 )
           atom      2   Si Mean Z*:       -0.00000
      E*x (        0.00000        0.00000       -0.00000 )
      E*y (        0.00000       -0.00000        0.00000 )
      E*z (        0.00000        0.00000        0.00000 )


     Representation #   1 modes #   1   2   3

     Self-consistent Calculation

      iter #   1 total cpu time :     3.0 secs   av.it.:   5.4
      thresh= 1.000E-02 alpha_mix =  0.700 |ddv_scf|^2 =  3.114E-08

      iter #   2 total cpu time :     3.5 secs   av.it.:  10.8
      thresh= 1.765E-05 alpha_mix =  0.700 |ddv_scf|^2 =  1.889E-09

      iter #   3 total cpu time :     4.0 secs   av.it.:  10.6
      thresh= 4.347E-06 alpha_mix =  0.700 |ddv_scf|^2 =  9.831E-11

      iter #   4 total cpu time :     4.4 secs   av.it.:  10.3
      thresh= 9.915E-07 alpha_mix =  0.700 |ddv_scf|^2 =  1.477E-13

      iter #   5 total cpu time :     4.7 secs   av.it.:  11.2
      thresh= 3.843E-08 alpha_mix =  0.700 |ddv_scf|^2 =  2.066E-15

     End of self-consistent calculation

     Convergence has been achieved 


     Representation #   2 modes #   4   5   6

     Self-consistent Calculation

      iter #   1 total cpu time :     5.3 secs   av.it.:   5.6
      thresh= 1.000E-02 alpha_mix =  0.700 |ddv_scf|^2 =  2.906E-08

      iter #   2 total cpu time :     5.7 secs   av.it.:  10.8
      thresh= 1.705E-05 alpha_mix =  0.700 |ddv_scf|^2 =  2.025E-09

      iter #   3 total cpu time :     6.2 secs   av.it.:  10.8
      thresh= 4.500E-06 alpha_mix =  0.700 |ddv_scf|^2 =  9.340E-11

      iter #   4 total cpu time :     6.7 secs   av.it.:  10.9
      thresh= 9.664E-07 alpha_mix =  0.700 |ddv_scf|^2 =  2.402E-13

      iter #   5 total cpu time :     7.0 secs   av.it.:  10.9
      thresh= 4.901E-08 alpha_mix =  0.700 |ddv_scf|^2 =  5.858E-16

     End of self-consistent calculation

     Convergence has been achieved 
 
     Number of q in the star =    1
     List of q in the star:
          1   0.000000000   0.000000000   0.000000000

          Dielectric constant in cartesian axis 

          (      14.376003756       0.000000000       0.000000000 )
          (       0.000000000      14.376003756       0.000000000 )
          (       0.000000000       0.000000000      14.376003756 )

          Effective charges (d Force / dE) in cartesian axis without acoustic sum rule applied (asr)

           atom      1   Si Mean Z*:       -0.08618
      Ex  (       -0.08618       -0.00000        0.00000 )
      Ey  (       -0.00000       -0.08618       -0.00000 )
      Ez  (       -0.00000       -0.00000       -0.08618 )
           atom      2   Si Mean Z*:       -0.08618
      Ex  (       -0.08618        0.00000       -0.00000 )
      Ey  (       -0.00000       -0.08618        0.00000 )
      Ez  (        0.00000        0.00000       -0.08618 )

          Effective charges Sum: Mean:       -0.17236
             -0.17236       -0.00000        0.00000
             -0.00000       -0.17236       -0.00000
              0.00000        0.00000       -0.17236

          Effective charges (d Force / dE) in cartesian axis with asr applied: 
           atom      1   Si Mean Z*:        0.00000
      E*x (        0.00000       -0.00000        0.00000 )
      E*y (        0.00000        0.00000       -0.00000 )
      E*z (       -0.00000       -0.00000        0.00000 )
           atom      2   Si Mean Z*:       -0.00000
      E*x (        0.00000        0.00000       -0.00000 )
      E*y (        0.00000       -0.00000        0.00000 )
      E*z (        0.00000        0.00000        0.00000 )

          Effective charges (d P / du) in cartesian axis 

           atom      1   Si 
      Px  (       -0.08629        0.00000       -0.00000 )
      Py  (        0.00000       -0.08629        0.00000 )
      Pz  (       -0.00000        0.00000       -0.08629 )
           atom      2   Si 
      Px  (       -0.08629        0.00000       -0.00000 )
      Py  (        0.00000       -0.08629        0.00000 )
      Pz  (       -0.00000        0.00000       -0.08629 )

     Diagonalizing the dynamical matrix

     q = (    0.000000000   0.000000000   0.000000000 ) 

 **************************************************************************
     freq (    1) =      -0.669033 [THz] =     -22.316543 [cm-1]
     freq (    2) =      -0.669033 [THz] =     -22.316543 [cm-1]
     freq (    3) =      -0.669033 [THz] =     -22.316543 [cm-1]
     freq (    4) =      15.261049 [THz] =     509.053811 [cm-1]
     freq (    5) =      15.261049 [THz] =     509.053811 [cm-1]
     freq (    6) =      15.261049 [THz] =     509.053811 [cm-1]
 **************************************************************************

     Mode symmetry, O_h (m-3m)  point group:

     freq (   1-   3) =        -22.3  [cm-1]   --> T_1u G_15  G_4- I  
     freq (   4-   6) =        509.1  [cm-1]   --> T_2g G_25' G_5+ R  

     Calculation of q =    0.5000000  -0.5000000   0.5000000
 
     Parallelization info
     --------------------
     sticks:   dense  smooth     PW     G-vecs:    dense   smooth      PW
     Min          71      71     25                 1407     1407     281
     Max          72      72     26                 1410     1410     283
     Sum         859     859    301                16889    16889    3383
 
     Using Slab Decomposition
 

     Title: 
     default                                                                    


     bravais-lattice index     =            2
     lattice parameter (alat)  =      10.2672  a.u.
     unit-cell volume          =     270.5802 (a.u.)^3
     number of atoms/cell      =            2
     number of atomic types    =            1
     number of electrons       =         8.00
     number of Kohn-Sham states=            4
     kinetic-energy cutoff     =      60.0000  Ry
     charge density cutoff     =     240.0000  Ry
     Exchange-correlation= PBESOL
                           (   1   4  10   8   0   0   0)

     celldm(1)=  10.267200  celldm(2)=   0.000000  celldm(3)=   0.000000
     celldm(4)=   0.000000  celldm(5)=   0.000000  celldm(6)=   0.000000

     crystal axes: (cart. coord. in units of alat)
               a(1) = (  -0.500000   0.000000   0.500000 )  
               a(2) = (   0.000000   0.500000   0.500000 )  
               a(3) = (  -0.500000   0.500000   0.000000 )  

     reciprocal axes: (cart. coord. in units 2 pi/alat)
               b(1) = ( -1.000000 -1.000000  1.000000 )  
               b(2) = (  1.000000  1.000000  1.000000 )  
               b(3) = ( -1.000000  1.000000 -1.000000 )  


     PseudoPot. # 1 for Si read from file:
     ../pseudo/Si.pbesol-n-rrkjus_psl.1.0.0.UPF
     MD5 check sum: c4212819de858c94c3a1644338846ac9
     Pseudo is Ultrasoft + core correction, Zval =  4.0
     Generated using "atomic" code by A. Dal Corso  v.6.0 svn rev. 13079
     Using radial grid of 1141 points,  6 beta functions with: 
                l(1) =   0
                l(2) =   0
                l(3) =   1
                l(4) =   1
                l(5) =   2
                l(6) =   2
     Q(r) pseudized with 0 coefficients 


     atomic species   valence    mass     pseudopotential
        Si             4.00    28.08550     Si( 1.00)

     48 Sym. Ops., with inversion, found



   Cartesian axes

     site n.     atom                  positions (alat units)
         1           Si  tau(   1) = (  -0.2500000   0.2500000   0.2500000  )
         2           Si  tau(   2) = (  -0.5000000   0.5000000   0.5000000  )

     number of k points=    60
                       cart. coord. in units 2pi/alat
        k(    1) = (  -0.1250000   0.1250000   0.1250000), wk =   0.0468750
        k(    2) = (   0.3750000  -0.3750000   0.6250000), wk =   0.0000000
        k(    3) = (  -0.3750000   0.3750000  -0.1250000), wk =   0.0468750
        k(    4) = (   0.1250000  -0.1250000   0.3750000), wk =   0.0000000
        k(    5) = (   0.3750000  -0.3750000   0.6250000), wk =   0.0468750
        k(    6) = (   0.8750000  -0.8750000   1.1250000), wk =   0.0000000
        k(    7) = (   0.1250000  -0.1250000   0.3750000), wk =   0.0468750
        k(    8) = (   0.6250000  -0.6250000   0.8750000), wk =   0.0000000
        k(    9) = (  -0.1250000   0.6250000   0.1250000), wk =   0.0937500
        k(   10) = (   0.3750000   0.1250000   0.6250000), wk =   0.0000000
        k(   11) = (   0.6250000  -0.1250000   0.8750000), wk =   0.0937500
        k(   12) = (   1.1250000  -0.6250000   1.3750000), wk =   0.0000000
        k(   13) = (   0.3750000   0.1250000   0.6250000), wk =   0.0937500
        k(   14) = (   0.8750000  -0.3750000   1.1250000), wk =   0.0000000
        k(   15) = (  -0.1250000  -0.8750000   0.1250000), wk =   0.0937500
        k(   16) = (   0.3750000  -1.3750000   0.6250000), wk =   0.0000000
        k(   17) = (  -0.3750000   0.3750000   0.3750000), wk =   0.0468750
        k(   18) = (   0.1250000  -0.1250000   0.8750000), wk =   0.0000000
        k(   19) = (   0.3750000  -0.3750000   1.1250000), wk =   0.0468750
        k(   20) = (   0.8750000  -0.8750000   1.6250000), wk =   0.0000000
        k(   21) = (   0.1250000  -0.1250000   0.1250000), wk =   0.0156250
        k(   22) = (   0.6250000  -0.6250000   0.6250000), wk =   0.0000000
        k(   23) = (  -0.1250000  -0.3750000   0.3750000), wk =   0.0468750
        k(   24) = (   0.3750000  -0.8750000   0.8750000), wk =   0.0000000
        k(   25) = (   0.3750000   0.3750000   0.1250000), wk =   0.0937500
        k(   26) = (   0.8750000  -0.1250000   0.6250000), wk =   0.0000000
        k(   27) = (   0.6250000   0.3750000  -0.3750000), wk =   0.0468750
        k(   28) = (   1.1250000  -0.1250000   0.1250000), wk =   0.0000000
        k(   29) = (  -0.3750000  -0.3750000  -0.6250000), wk =   0.0937500
        k(   30) = (   0.1250000  -0.8750000  -0.1250000), wk =   0.0000000
        k(   31) = (   0.3750000   0.1250000  -0.1250000), wk =   0.0468750
        k(   32) = (   0.8750000  -0.3750000   0.3750000), wk =   0.0000000
        k(   33) = (  -0.1250000  -0.1250000  -0.3750000), wk =   0.0937500
        k(   34) = (   0.3750000  -0.6250000   0.1250000), wk =   0.0000000
        k(   35) = (   0.1250000  -0.6250000   0.1250000), wk =   0.0468750
        k(   36) = (   0.6250000  -1.1250000   0.6250000), wk =   0.0000000
        k(   37) = (   0.1250000   0.6250000   0.1250000), wk =   0.0468750
        k(   38) = (   0.6250000   0.1250000   0.6250000), wk =   0.0000000
        k(   39) = (   0.8750000   0.1250000  -0.6250000), wk =   0.0937500
        k(   40) = (   1.3750000  -0.3750000  -0.1250000), wk =   0.0000000
        k(   41) = (  -0.6250000  -0.1250000  -0.8750000), wk =   0.0937500
        k(   42) = (  -0.1250000  -0.6250000  -0.3750000), wk =   0.0000000
        k(   43) = (   0.8750000  -0.1250000  -0.6250000), wk =   0.0937500
        k(   44) = (   1.3750000  -0.6250000  -0.1250000), wk =   0.0000000
        k(   45) = (   0.6250000  -0.1250000  -0.3750000), wk =   0.0937500
        k(   46) = (   1.1250000  -0.6250000   0.1250000), wk =   0.0000000
        k(   47) = (  -0.3750000   0.1250000  -0.6250000), wk =   0.0937500
        k(   48) = (   0.1250000  -0.3750000  -0.1250000), wk =   0.0000000
        k(   49) = (   0.6250000   0.1250000  -0.3750000), wk =   0.0937500
        k(   50) = (   1.1250000  -0.3750000   0.1250000), wk =   0.0000000
        k(   51) = (   0.1250000   0.8750000   0.1250000), wk =   0.0468750
        k(   52) = (   0.6250000   0.3750000   0.6250000), wk =   0.0000000
        k(   53) = (   0.1250000  -0.8750000   0.1250000), wk =   0.0468750
        k(   54) = (   0.6250000  -1.3750000   0.6250000), wk =   0.0000000
        k(   55) = (   0.3750000  -0.3750000   0.3750000), wk =   0.0156250
        k(   56) = (   0.8750000  -0.8750000   0.8750000), wk =   0.0000000
        k(   57) = (   1.1250000   0.3750000  -0.3750000), wk =   0.0468750
        k(   58) = (   1.6250000  -0.1250000   0.1250000), wk =   0.0000000
        k(   59) = (  -0.3750000  -0.3750000  -1.1250000), wk =   0.0937500
        k(   60) = (   0.1250000  -0.8750000  -0.6250000), wk =   0.0000000

     Dense  grid:    16889 G-vectors     FFT dimensions: (  36,  36,  36)

     Estimated max dynamical RAM per process >       3.89 MB

     Estimated total dynamical RAM >      93.29 MB

     The potential is recalculated from file :
     ./out/_ph0/Si.save/charge-density

     Starting wfcs are    8 atomic wfcs

     Band Structure Calculation
     Davidson diagonalization with overlap

     ethr =  1.25E-10,  avg # of iterations = 13.6

     total cpu time spent up to now is        0.3 secs

     End of band structure calculation

          k =-0.1250 0.1250 0.1250 (  2112 PWs)   bands (ev):

    -5.6327   4.5293   5.8503   5.8503

          k = 0.3750-0.3750 0.6250 (  2122 PWs)   bands (ev):

    -3.4073  -0.6394   3.8400   4.5708

          k =-0.3750 0.3750-0.1250 (  2117 PWs)   bands (ev):

    -4.5836   1.4961   3.8046   5.3659

          k = 0.1250-0.1250 0.3750 (  2117 PWs)   bands (ev):

    -5.0940   2.9031   4.8115   4.8851

          k = 0.3750-0.3750 0.6250 (  2122 PWs)   bands (ev):

    -3.4073  -0.6394   3.8400   4.5708

          k = 0.8750-0.8750 1.1250 (  2112 PWs)   bands (ev):

    -5.6327   4.5293   5.8503   5.8503

          k = 0.1250-0.1250 0.3750 (  2117 PWs)   bands (ev):

    -5.0940   2.9031   4.8115   4.8851

          k = 0.6250-0.6250 0.8750 (  2117 PWs)   bands (ev):

    -4.5836   1.4961   3.8046   5.3659

          k =-0.1250 0.6250 0.1250 (  2120 PWs)   bands (ev):

    -4.0411   1.1939   3.4421   3.9179

          k = 0.3750 0.1250 0.6250 (  2117 PWs)   bands (ev):

    -3.6123   0.2838   2.7851   4.1938

          k = 0.6250-0.1250 0.8750 (  2142 PWs)   bands (ev):

    -2.3566  -0.7981   2.0331   3.1491

          k = 1.1250-0.6250 1.3750 (  2117 PWs)   bands (ev):

    -4.5836   1.4961   3.8046   5.3659

          k = 0.3750 0.1250 0.6250 (  2117 PWs)   bands (ev):

    -3.6123   0.2838   2.7851   4.1938

          k = 0.8750-0.3750 1.1250 (  2120 PWs)   bands (ev):

    -4.0411   1.1939   3.4421   3.9179

          k =-0.1250-0.8750 0.1250 (  2127 PWs)   bands (ev):

    -2.5372  -0.6943   2.6689   3.4417

          k = 0.3750-1.3750 0.6250 (  2122 PWs)   bands (ev):

    -3.4073  -0.6394   3.8400   4.5708

          k =-0.3750 0.3750 0.3750 (  2126 PWs)   bands (ev):

    -4.1374   0.1642   5.0509   5.0509

          k = 0.1250-0.1250 0.8750 (  2127 PWs)   bands (ev):

    -2.5372  -0.6943   2.6689   3.4417

          k = 0.3750-0.3750 1.1250 (  2125 PWs)   bands (ev):

    -2.9023  -0.5180   2.1048   4.2436

          k = 0.8750-0.8750 1.6250 (  2120 PWs)   bands (ev):

    -4.0411   1.1939   3.4421   3.9179

          k = 0.1250-0.1250 0.1250 (  2112 PWs)   bands (ev):

    -5.6327   4.5293   5.8503   5.8503

          k = 0.6250-0.6250 0.6250 (  2126 PWs)   bands (ev):

    -4.1374   0.1642   5.0509   5.0509

          k =-0.1250-0.3750 0.3750 (  2117 PWs)   bands (ev):

    -4.5836   1.4961   3.8046   5.3659

          k = 0.3750-0.8750 0.8750 (  2120 PWs)   bands (ev):

    -4.0411   1.1939   3.4421   3.9179

          k = 0.3750 0.3750 0.1250 (  2117 PWs)   bands (ev):

    -4.5836   1.4961   3.8046   5.3659

          k = 0.8750-0.1250 0.6250 (  2142 PWs)   bands (ev):

    -2.3566  -0.7981   2.0331   3.1491

          k = 0.6250 0.3750-0.3750 (  2122 PWs)   bands (ev):

    -3.4073  -0.6394   3.8400   4.5708

          k = 1.1250-0.1250 0.1250 (  2127 PWs)   bands (ev):

    -2.5372  -0.6943   2.6689   3.4417

          k =-0.3750-0.3750-0.6250 (  2122 PWs)   bands (ev):

    -3.4073  -0.6394   3.8400   4.5708

          k = 0.1250-0.8750-0.1250 (  2127 PWs)   bands (ev):

    -2.5372  -0.6943   2.6689   3.4417

          k = 0.3750 0.1250-0.1250 (  2117 PWs)   bands (ev):

    -5.0940   2.9031   4.8115   4.8851

          k = 0.8750-0.3750 0.3750 (  2125 PWs)   bands (ev):

    -2.9023  -0.5180   2.1048   4.2436

          k =-0.1250-0.1250-0.3750 (  2117 PWs)   bands (ev):

    -5.0940   2.9031   4.8115   4.8851

          k = 0.3750-0.6250 0.1250 (  2117 PWs)   bands (ev):

    -3.6123   0.2838   2.7851   4.1938

          k = 0.1250-0.6250 0.1250 (  2120 PWs)   bands (ev):

    -4.0411   1.1939   3.4421   3.9179

          k = 0.6250-1.1250 0.6250 (  2117 PWs)   bands (ev):

    -4.5836   1.4961   3.8046   5.3659

          k = 0.1250 0.6250 0.1250 (  2120 PWs)   bands (ev):

    -4.0411   1.1939   3.4421   3.9179

          k = 0.6250 0.1250 0.6250 (  2125 PWs)   bands (ev):

    -2.9023  -0.5180   2.1048   4.2436

          k = 0.8750 0.1250-0.6250 (  2142 PWs)   bands (ev):

    -2.3566  -0.7981   2.0331   3.1491

          k = 1.3750-0.3750-0.1250 (  2117 PWs)   bands (ev):

    -3.6123   0.2838   2.7851   4.1938

          k =-0.6250-0.1250-0.8750 (  2142 PWs)   bands (ev):

    -2.3566  -0.7981   2.0331   3.1491

          k =-0.1250-0.6250-0.3750 (  2117 PWs)   bands (ev):

    -3.6123   0.2838   2.7851   4.1938

          k = 0.8750-0.1250-0.6250 (  2142 PWs)   bands (ev):

    -2.3566  -0.7981   2.0331   3.1491

          k = 1.3750-0.6250-0.1250 (  2125 PWs)   bands (ev):

    -2.9023  -0.5180   2.1048   4.2436

          k = 0.6250-0.1250-0.3750 (  2117 PWs)   bands (ev):

    -3.6123   0.2838   2.7851   4.1938

          k = 1.1250-0.6250 0.1250 (  2142 PWs)   bands (ev):

    -2.3566  -0.7981   2.0331   3.1491

          k =-0.3750 0.1250-0.6250 (  2117 PWs)   bands (ev):

    -3.6123   0.2838   2.7851   4.1938

          k = 0.1250-0.3750-0.1250 (  2117 PWs)   bands (ev):

    -5.0940   2.9031   4.8115   4.8851

          k = 0.6250 0.1250-0.3750 (  2117 PWs)   bands (ev):

    -3.6123   0.2838   2.7851   4.1938

          k = 1.1250-0.3750 0.1250 (  2142 PWs)   bands (ev):

    -2.3566  -0.7981   2.0331   3.1491

          k = 0.1250 0.8750 0.1250 (  2127 PWs)   bands (ev):

    -2.5372  -0.6943   2.6689   3.4417

          k = 0.6250 0.3750 0.6250 (  2122 PWs)   bands (ev):

    -3.4073  -0.6394   3.8400   4.5708

          k = 0.1250-0.8750 0.1250 (  2127 PWs)   bands (ev):

    -2.5372  -0.6943   2.6689   3.4417

          k = 0.6250-1.3750 0.6250 (  2126 PWs)   bands (ev):

    -4.1374   0.1642   5.0509   5.0509

          k = 0.3750-0.3750 0.3750 (  2126 PWs)   bands (ev):

    -4.1374   0.1642   5.0509   5.0509

          k = 0.8750-0.8750 0.8750 (  2112 PWs)   bands (ev):

    -5.6327   4.5293   5.8503   5.8503

          k = 1.1250 0.3750-0.3750 (  2125 PWs)   bands (ev):

    -2.9023  -0.5180   2.1048   4.2436

          k = 1.6250-0.1250 0.1250 (  2117 PWs)   bands (ev):

    -5.0940   2.9031   4.8115   4.8851

          k =-0.3750-0.3750-1.1250 (  2125 PWs)   bands (ev):

    -2.9023  -0.5180   2.1048   4.2436

          k = 0.1250-0.8750-0.6250 (  2142 PWs)   bands (ev):

    -2.3566  -0.7981   2.0331   3.1491

     highest occupied level (ev):     5.8503

     Writing config to output data dir ./out/_ph0/Si.save/

     default                                                                    

     bravais-lattice index     =            2
     lattice parameter (alat)  =      10.2672  a.u.
     unit-cell volume          =     270.5802 (a.u.)^3
     number of atoms/cell      =            2
     number of atomic types    =            1
     kinetic-energy cut-off    =      60.0000  Ry
     charge density cut-off    =     240.0000  Ry
     convergence threshold     =      1.0E-14
     beta                      =       0.7000
     number of iterations used =            4
     Exchange-correlation= PBESOL
                           (   1   4  10   8   0   0   0)


     celldm(1)=   10.26720  celldm(2)=    0.00000  celldm(3)=    0.00000
     celldm(4)=    0.00000  celldm(5)=    0.00000  celldm(6)=    0.00000

     crystal axes: (cart. coord. in units of alat)
               a(1) = ( -0.5000  0.0000  0.5000 )  
               a(2) = (  0.0000  0.5000  0.5000 )  
               a(3) = ( -0.5000  0.5000  0.0000 )  

     reciprocal axes: (cart. coord. in units 2 pi/alat)
               b(1) = ( -1.0000 -1.0000  1.0000 )  
               b(2) = (  1.0000  1.0000  1.0000 )  
               b(3) = ( -1.0000  1.0000 -1.0000 )  


     Atoms inside the unit cell: 

     Cartesian axes

     site n.  atom      mass           positions (alat units)
        1     Si  28.0855   tau(    1) = (   -0.25000    0.25000    0.25000  )
        2     Si  28.0855   tau(    2) = (   -0.50000    0.50000    0.50000  )

     Computing dynamical matrix for 
                    q = (   0.5000000  -0.5000000   0.5000000 )
 
     13 Sym.Ops. (with q -> -q+G )


     G cutoff =  640.8488  (   1410 G-vectors)     FFT grid: ( 36, 36, 36)
     number of k points=    60

     PseudoPot. # 1 for Si read from file:
     ../pseudo/Si.pbesol-n-rrkjus_psl.1.0.0.UPF
     MD5 check sum: c4212819de858c94c3a1644338846ac9
     Pseudo is Ultrasoft + core correction, Zval =  4.0
     Generated using "atomic" code by A. Dal Corso  v.6.0 svn rev. 13079
     Using radial grid of 1141 points,  6 beta functions with: 
                l(1) =   0
                l(2) =   0
                l(3) =   1
                l(4) =   1
                l(5) =   2
                l(6) =   2
     Q(r) pseudized with 0 coefficients 



     Atomic displacements:
     There are    4 irreducible representations

     Representation     1      1 modes -  To be done

     Representation     2      1 modes -  To be done

     Representation     3      2 modes -  To be done

     Representation     4      2 modes -  To be done



     Alpha used in Ewald sum =   2.5000
     PHONON       :      5.47s CPU      8.69s WALL



     Representation #   1 mode #   1

     Self-consistent Calculation

      iter #   1 total cpu time :     8.8 secs   av.it.:   5.2
      thresh= 1.000E-02 alpha_mix =  0.700 |ddv_scf|^2 =  4.439E-06

      iter #   2 total cpu time :     9.0 secs   av.it.:   9.2
      thresh= 2.107E-04 alpha_mix =  0.700 |ddv_scf|^2 =  4.091E-06

      iter #   3 total cpu time :     9.3 secs   av.it.:   8.6
      thresh= 2.023E-04 alpha_mix =  0.700 |ddv_scf|^2 =  5.188E-09

      iter #   4 total cpu time :     9.5 secs   av.it.:   9.1
      thresh= 7.203E-06 alpha_mix =  0.700 |ddv_scf|^2 =  2.468E-11

      iter #   5 total cpu time :     9.7 secs   av.it.:   9.1
      thresh= 4.968E-07 alpha_mix =  0.700 |ddv_scf|^2 =  3.888E-13

      iter #   6 total cpu time :     9.9 secs   av.it.:   9.1
      thresh= 6.236E-08 alpha_mix =  0.700 |ddv_scf|^2 =  7.547E-15

     End of self-consistent calculation

     Convergence has been achieved 


     Representation #   2 mode #   2

     Self-consistent Calculation

      iter #   1 total cpu time :    10.2 secs   av.it.:   6.3
      thresh= 1.000E-02 alpha_mix =  0.700 |ddv_scf|^2 =  6.159E-05

      iter #   2 total cpu time :    10.4 secs   av.it.:   9.3
      thresh= 7.848E-04 alpha_mix =  0.700 |ddv_scf|^2 =  1.960E-04

      iter #   3 total cpu time :    10.6 secs   av.it.:   8.3
      thresh= 1.400E-03 alpha_mix =  0.700 |ddv_scf|^2 =  1.845E-08

      iter #   4 total cpu time :    10.8 secs   av.it.:   9.3
      thresh= 1.358E-05 alpha_mix =  0.700 |ddv_scf|^2 =  1.080E-09

      iter #   5 total cpu time :    11.0 secs   av.it.:   9.6
      thresh= 3.287E-06 alpha_mix =  0.700 |ddv_scf|^2 =  1.878E-11

      iter #   6 total cpu time :    11.2 secs   av.it.:   9.6
      thresh= 4.334E-07 alpha_mix =  0.700 |ddv_scf|^2 =  6.174E-13

      iter #   7 total cpu time :    11.3 secs   av.it.:   9.1
      thresh= 7.858E-08 alpha_mix =  0.700 |ddv_scf|^2 =  5.483E-16

     End of self-consistent calculation

     Convergence has been achieved 


     Representation #   3 modes #   3   4

     Self-consistent Calculation

      iter #   1 total cpu time :    11.8 secs   av.it.:   5.6
      thresh= 1.000E-02 alpha_mix =  0.700 |ddv_scf|^2 =  1.506E-07

      iter #   2 total cpu time :    12.1 secs   av.it.:  10.7
      thresh= 3.881E-05 alpha_mix =  0.700 |ddv_scf|^2 =  1.298E-08

      iter #   3 total cpu time :    12.5 secs   av.it.:  10.4
      thresh= 1.139E-05 alpha_mix =  0.700 |ddv_scf|^2 =  6.376E-10

      iter #   4 total cpu time :    12.8 secs   av.it.:   9.9
      thresh= 2.525E-06 alpha_mix =  0.700 |ddv_scf|^2 =  3.743E-13

      iter #   5 total cpu time :    13.1 secs   av.it.:  10.6
      thresh= 6.118E-08 alpha_mix =  0.700 |ddv_scf|^2 =  5.157E-15

     End of self-consistent calculation

     Convergence has been achieved 


     Representation #   4 modes #   5   6

     Self-consistent Calculation

      iter #   1 total cpu time :    13.6 secs   av.it.:   5.2
      thresh= 1.000E-02 alpha_mix =  0.700 |ddv_scf|^2 =  5.223E-08

      iter #   2 total cpu time :    13.9 secs   av.it.:  10.3
      thresh= 2.285E-05 alpha_mix =  0.700 |ddv_scf|^2 =  3.636E-09

      iter #   3 total cpu time :    14.3 secs   av.it.:  10.0
      thresh= 6.030E-06 alpha_mix =  0.700 |ddv_scf|^2 =  4.448E-11

      iter #   4 total cpu time :    14.6 secs   av.it.:  10.3
      thresh= 6.670E-07 alpha_mix =  0.700 |ddv_scf|^2 =  4.683E-13

      iter #   5 total cpu time :    14.9 secs   av.it.:  10.5
      thresh= 6.843E-08 alpha_mix =  0.700 |ddv_scf|^2 =  6.062E-15

     End of self-consistent calculation

     Convergence has been achieved 
 
     Number of q in the star =    4
     List of q in the star:
          1   0.500000000  -0.500000000   0.500000000
          2   0.500000000   0.500000000  -0.500000000
          3  -0.500000000  -0.500000000  -0.500000000
          4   0.500000000  -0.500000000  -0.500000000

     Diagonalizing the dynamical matrix

     q = (    0.500000000  -0.500000000   0.500000000 ) 

 **************************************************************************
     freq (    1) =       3.050076 [THz] =     101.739600 [cm-1]
     freq (    2) =       3.050076 [THz] =     101.739600 [cm-1]
     freq (    3) =      11.047555 [THz] =     368.506767 [cm-1]
     freq (    4) =      12.247051 [THz] =     408.517664 [cm-1]
     freq (    5) =      14.554643 [THz] =     485.490638 [cm-1]
     freq (    6) =      14.554643 [THz] =     485.490638 [cm-1]
 **************************************************************************

     Calculation of q =    0.0000000  -1.0000000   0.0000000
 
     Parallelization info
     --------------------
     sticks:   dense  smooth     PW     G-vecs:    dense   smooth      PW
     Min          71      71     24                 1407     1407     267
     Max          72      72     26                 1410     1410     269
     Sum         859     859    295                16889    16889    3215
 
     Using Slab Decomposition
 

     Title: 
     default                                                                    


     bravais-lattice index     =            2
     lattice parameter (alat)  =      10.2672  a.u.
     unit-cell volume          =     270.5802 (a.u.)^3
     number of atoms/cell      =            2
     number of atomic types    =            1
     number of electrons       =         8.00
     number of Kohn-Sham states=            4
     kinetic-energy cutoff     =      60.0000  Ry
     charge density cutoff     =     240.0000  Ry
     Exchange-correlation= PBESOL
                           (   1   4  10   8   0   0   0)

     celldm(1)=  10.267200  celldm(2)=   0.000000  celldm(3)=   0.000000
     celldm(4)=   0.000000  celldm(5)=   0.000000  celldm(6)=   0.000000

     crystal axes: (cart. coord. in units of alat)
               a(1) = (  -0.500000   0.000000   0.500000 )  
               a(2) = (   0.000000   0.500000   0.500000 )  
               a(3) = (  -0.500000   0.500000   0.000000 )  

     reciprocal axes: (cart. coord. in units 2 pi/alat)
               b(1) = ( -1.000000 -1.000000  1.000000 )  
               b(2) = (  1.000000  1.000000  1.000000 )  
               b(3) = ( -1.000000  1.000000 -1.000000 )  


     PseudoPot. # 1 for Si read from file:
     ../pseudo/Si.pbesol-n-rrkjus_psl.1.0.0.UPF
     MD5 check sum: c4212819de858c94c3a1644338846ac9
     Pseudo is Ultrasoft + core correction, Zval =  4.0
     Generated using "atomic" code by A. Dal Corso  v.6.0 svn rev. 13079
     Using radial grid of 1141 points,  6 beta functions with: 
                l(1) =   0
                l(2) =   0
                l(3) =   1
                l(4) =   1
                l(5) =   2
                l(6) =   2
     Q(r) pseudized with 0 coefficients 


     atomic species   valence    mass     pseudopotential
        Si             4.00    28.08550     Si( 1.00)

     48 Sym. Ops., with inversion, found



   Cartesian axes

     site n.     atom                  positions (alat units)
         1           Si  tau(   1) = (  -0.2500000   0.2500000   0.2500000  )
         2           Si  tau(   2) = (  -0.5000000   0.5000000   0.5000000  )

     number of k points=    40
                       cart. coord. in units 2pi/alat
        k(    1) = (  -0.1250000   0.1250000   0.1250000), wk =   0.0625000
        k(    2) = (  -0.1250000  -0.8750000   0.1250000), wk =   0.0000000
        k(    3) = (  -0.3750000   0.3750000  -0.1250000), wk =   0.1250000
        k(    4) = (  -0.3750000  -0.6250000  -0.1250000), wk =   0.0000000
        k(    5) = (   0.3750000  -0.3750000   0.6250000), wk =   0.1250000
        k(    6) = (   0.3750000  -1.3750000   0.6250000), wk =   0.0000000
        k(    7) = (   0.1250000  -0.1250000   0.3750000), wk =   0.1250000
        k(    8) = (   0.1250000  -1.1250000   0.3750000), wk =   0.0000000
        k(    9) = (  -0.1250000   0.6250000   0.1250000), wk =   0.0625000
        k(   10) = (  -0.1250000  -0.3750000   0.1250000), wk =   0.0000000
        k(   11) = (   0.6250000  -0.1250000   0.8750000), wk =   0.1250000
        k(   12) = (   0.6250000  -1.1250000   0.8750000), wk =   0.0000000
        k(   13) = (   0.3750000   0.1250000   0.6250000), wk =   0.1250000
        k(   14) = (   0.3750000  -0.8750000   0.6250000), wk =   0.0000000
        k(   15) = (  -0.1250000  -0.8750000   0.1250000), wk =   0.0625000
        k(   16) = (  -0.1250000  -1.8750000   0.1250000), wk =   0.0000000
        k(   17) = (  -0.3750000   0.3750000   0.3750000), wk =   0.0625000
        k(   18) = (  -0.3750000  -0.6250000   0.3750000), wk =   0.0000000
        k(   19) = (   0.3750000  -0.3750000   1.1250000), wk =   0.1250000
        k(   20) = (   0.3750000  -1.3750000   1.1250000), wk =   0.0000000
        k(   21) = (   0.3750000  -0.1250000  -0.3750000), wk =   0.0625000
        k(   22) = (   0.3750000  -1.1250000  -0.3750000), wk =   0.0000000
        k(   23) = (  -0.3750000   0.6250000   0.3750000), wk =   0.0625000
        k(   24) = (  -0.3750000  -0.3750000   0.3750000), wk =   0.0000000
        k(   25) = (  -0.1250000   0.3750000   0.1250000), wk =   0.0625000
        k(   26) = (  -0.1250000  -0.6250000   0.1250000), wk =   0.0000000
        k(   27) = (   0.6250000   0.1250000  -0.1250000), wk =   0.1250000
        k(   28) = (   0.6250000  -0.8750000  -0.1250000), wk =   0.0000000
        k(   29) = (  -0.1250000   0.8750000   0.6250000), wk =   0.1250000
        k(   30) = (  -0.1250000  -0.1250000   0.6250000), wk =   0.0000000
        k(   31) = (   0.8750000   0.6250000  -0.1250000), wk =   0.1250000
        k(   32) = (   0.8750000  -0.3750000  -0.1250000), wk =   0.0000000
        k(   33) = (   0.1250000   0.6250000   0.3750000), wk =   0.1250000
        k(   34) = (   0.1250000  -0.3750000   0.3750000), wk =   0.0000000
        k(   35) = (   0.6250000   0.3750000   0.1250000), wk =   0.1250000
        k(   36) = (   0.6250000  -0.6250000   0.1250000), wk =   0.0000000
        k(   37) = (  -0.8750000   0.1250000  -0.1250000), wk =   0.1250000
        k(   38) = (  -0.8750000  -0.8750000  -0.1250000), wk =   0.0000000
        k(   39) = (  -0.3750000   1.1250000   0.3750000), wk =   0.0625000
        k(   40) = (  -0.3750000   0.1250000   0.3750000), wk =   0.0000000

     Dense  grid:    16889 G-vectors     FFT dimensions: (  36,  36,  36)

     Estimated max dynamical RAM per process >       3.89 MB

     Estimated total dynamical RAM >      93.45 MB

     The potential is recalculated from file :
     ./out/_ph0/Si.save/charge-density

     Starting wfcs are    8 atomic wfcs

     Band Structure Calculation
     Davidson diagonalization with overlap

     ethr =  1.25E-10,  avg # of iterations = 13.6

     total cpu time spent up to now is        0.7 secs

     End of band structure calculation

          k =-0.1250 0.1250 0.1250 (  2112 PWs)   bands (ev):

    -5.6327   4.5293   5.8503   5.8503

          k =-0.1250-0.8750 0.1250 (  2127 PWs)   bands (ev):

    -2.5372  -0.6943   2.6689   3.4417

          k =-0.3750 0.3750-0.1250 (  2117 PWs)   bands (ev):

    -4.5836   1.4961   3.8046   5.3659

          k =-0.3750-0.6250-0.1250 (  2117 PWs)   bands (ev):

    -3.6123   0.2838   2.7851   4.1938

          k = 0.3750-0.3750 0.6250 (  2122 PWs)   bands (ev):

    -3.4073  -0.6394   3.8400   4.5708

          k = 0.3750-1.3750 0.6250 (  2122 PWs)   bands (ev):

    -3.4073  -0.6394   3.8400   4.5708

          k = 0.1250-0.1250 0.3750 (  2117 PWs)   bands (ev):

    -5.0940   2.9031   4.8115   4.8851

          k = 0.1250-1.1250 0.3750 (  2142 PWs)   bands (ev):

    -2.3566  -0.7981   2.0331   3.1491

          k =-0.1250 0.6250 0.1250 (  2120 PWs)   bands (ev):

    -4.0411   1.1939   3.4421   3.9179

          k =-0.1250-0.3750 0.1250 (  2117 PWs)   bands (ev):

    -5.0940   2.9031   4.8115   4.8851

          k = 0.6250-0.1250 0.8750 (  2142 PWs)   bands (ev):

    -2.3566  -0.7981   2.0331   3.1491

          k = 0.6250-1.1250 0.8750 (  2117 PWs)   bands (ev):

    -5.0940   2.9031   4.8115   4.8851

          k = 0.3750 0.1250 0.6250 (  2117 PWs)   bands (ev):

    -3.6123   0.2838   2.7851   4.1938

          k = 0.3750-0.8750 0.6250 (  2117 PWs)   bands (ev):

    -3.6123   0.2838   2.7851   4.1938

          k =-0.1250-0.8750 0.1250 (  2127 PWs)   bands (ev):

    -2.5372  -0.6943   2.6689   3.4417

          k =-0.1250-1.8750 0.1250 (  2112 PWs)   bands (ev):

    -5.6327   4.5293   5.8503   5.8503

          k =-0.3750 0.3750 0.3750 (  2126 PWs)   bands (ev):

    -4.1374   0.1642   5.0509   5.0509

          k =-0.3750-0.6250 0.3750 (  2122 PWs)   bands (ev):

    -3.4073  -0.6394   3.8400   4.5708

          k = 0.3750-0.3750 1.1250 (  2125 PWs)   bands (ev):

    -2.9023  -0.5180   2.1048   4.2436

          k = 0.3750-1.3750 1.1250 (  2117 PWs)   bands (ev):

    -3.6123   0.2838   2.7851   4.1938

          k = 0.3750-0.1250-0.3750 (  2117 PWs)   bands (ev):

    -4.5836   1.4961   3.8046   5.3659

          k = 0.3750-1.1250-0.3750 (  2125 PWs)   bands (ev):

    -2.9023  -0.5180   2.1048   4.2436

          k =-0.3750 0.6250 0.3750 (  2122 PWs)   bands (ev):

    -3.4073  -0.6394   3.8400   4.5708

          k =-0.3750-0.3750 0.3750 (  2126 PWs)   bands (ev):

    -4.1374   0.1642   5.0509   5.0509

          k =-0.1250 0.3750 0.1250 (  2117 PWs)   bands (ev):

    -5.0940   2.9031   4.8115   4.8851

          k =-0.1250-0.6250 0.1250 (  2120 PWs)   bands (ev):

    -4.0411   1.1939   3.4421   3.9179

          k = 0.6250 0.1250-0.1250 (  2120 PWs)   bands (ev):

    -4.0411   1.1939   3.4421   3.9179

          k = 0.6250-0.8750-0.1250 (  2142 PWs)   bands (ev):

    -2.3566  -0.7981   2.0331   3.1491

          k =-0.1250 0.8750 0.6250 (  2142 PWs)   bands (ev):

    -2.3566  -0.7981   2.0331   3.1491

          k =-0.1250-0.1250 0.6250 (  2120 PWs)   bands (ev):

    -4.0411   1.1939   3.4421   3.9179

          k = 0.8750 0.6250-0.1250 (  2142 PWs)   bands (ev):

    -2.3566  -0.7981   2.0331   3.1491

          k = 0.8750-0.3750-0.1250 (  2142 PWs)   bands (ev):

    -2.3566  -0.7981   2.0331   3.1491

          k = 0.1250 0.6250 0.3750 (  2117 PWs)   bands (ev):

    -3.6123   0.2838   2.7851   4.1938

          k = 0.1250-0.3750 0.3750 (  2117 PWs)   bands (ev):

    -4.5836   1.4961   3.8046   5.3659

          k = 0.6250 0.3750 0.1250 (  2117 PWs)   bands (ev):

    -3.6123   0.2838   2.7851   4.1938

          k = 0.6250-0.6250 0.1250 (  2125 PWs)   bands (ev):

    -2.9023  -0.5180   2.1048   4.2436

          k =-0.8750 0.1250-0.1250 (  2127 PWs)   bands (ev):

    -2.5372  -0.6943   2.6689   3.4417

          k =-0.8750-0.8750-0.1250 (  2127 PWs)   bands (ev):

    -2.5372  -0.6943   2.6689   3.4417

          k =-0.3750 1.1250 0.3750 (  2125 PWs)   bands (ev):

    -2.9023  -0.5180   2.1048   4.2436

          k =-0.3750 0.1250 0.3750 (  2117 PWs)   bands (ev):

    -4.5836   1.4961   3.8046   5.3659

     highest occupied level (ev):     5.8503

     Writing config to output data dir ./out/_ph0/Si.save/

     default                                                                    

     bravais-lattice index     =            2
     lattice parameter (alat)  =      10.2672  a.u.
     unit-cell volume          =     270.5802 (a.u.)^3
     number of atoms/cell      =            2
     number of atomic types    =            1
     kinetic-energy cut-off    =      60.0000  Ry
     charge density cut-off    =     240.0000  Ry
     convergence threshold     =      1.0E-14
     beta                      =       0.7000
     number of iterations used =            4
     Exchange-correlation= PBESOL
                           (   1   4  10   8   0   0   0)


     celldm(1)=   10.26720  celldm(2)=    0.00000  celldm(3)=    0.00000
     celldm(4)=    0.00000  celldm(5)=    0.00000  celldm(6)=    0.00000

     crystal axes: (cart. coord. in units of alat)
               a(1) = ( -0.5000  0.0000  0.5000 )  
               a(2) = (  0.0000  0.5000  0.5000 )  
               a(3) = ( -0.5000  0.5000  0.0000 )  

     reciprocal axes: (cart. coord. in units 2 pi/alat)
               b(1) = ( -1.0000 -1.0000  1.0000 )  
               b(2) = (  1.0000  1.0000  1.0000 )  
               b(3) = ( -1.0000  1.0000 -1.0000 )  


     Atoms inside the unit cell: 

     Cartesian axes

     site n.  atom      mass           positions (alat units)
        1     Si  28.0855   tau(    1) = (   -0.25000    0.25000    0.25000  )
        2     Si  28.0855   tau(    2) = (   -0.50000    0.50000    0.50000  )

     Computing dynamical matrix for 
                    q = (   0.0000000  -1.0000000   0.0000000 )
 
     17 Sym.Ops. (with q -> -q+G )


     G cutoff =  640.8488  (   1410 G-vectors)     FFT grid: ( 36, 36, 36)
     number of k points=    40

     PseudoPot. # 1 for Si read from file:
     ../pseudo/Si.pbesol-n-rrkjus_psl.1.0.0.UPF
     MD5 check sum: c4212819de858c94c3a1644338846ac9
     Pseudo is Ultrasoft + core correction, Zval =  4.0
     Generated using "atomic" code by A. Dal Corso  v.6.0 svn rev. 13079
     Using radial grid of 1141 points,  6 beta functions with: 
                l(1) =   0
                l(2) =   0
                l(3) =   1
                l(4) =   1
                l(5) =   2
                l(6) =   2
     Q(r) pseudized with 0 coefficients 



     Atomic displacements:
     There are    3 irreducible representations

     Representation     1      2 modes -  To be done

     Representation     2      2 modes -  To be done

     Representation     3      2 modes -  To be done



     Alpha used in Ewald sum =   2.5000
     PHONON       :      9.84s CPU     15.82s WALL



     Representation #   1 modes #   1   2

     Self-consistent Calculation

      iter #   1 total cpu time :    16.0 secs   av.it.:   5.0
      thresh= 1.000E-02 alpha_mix =  0.700 |ddv_scf|^2 =  4.508E-08

      iter #   2 total cpu time :    16.4 secs   av.it.:  10.0
      thresh= 2.123E-05 alpha_mix =  0.700 |ddv_scf|^2 =  3.216E-09

      iter #   3 total cpu time :    16.8 secs   av.it.:  10.1
      thresh= 5.671E-06 alpha_mix =  0.700 |ddv_scf|^2 =  7.445E-12

      iter #   4 total cpu time :    17.1 secs   av.it.:  10.2
      thresh= 2.728E-07 alpha_mix =  0.700 |ddv_scf|^2 =  1.025E-13

      iter #   5 total cpu time :    17.4 secs   av.it.:  10.4
      thresh= 3.202E-08 alpha_mix =  0.700 |ddv_scf|^2 =  3.487E-16

     End of self-consistent calculation

     Convergence has been achieved 


     Representation #   2 modes #   3   4

     Self-consistent Calculation

      iter #   1 total cpu time :    17.8 secs   av.it.:   6.2
      thresh= 1.000E-02 alpha_mix =  0.700 |ddv_scf|^2 =  2.996E-06

      iter #   2 total cpu time :    18.1 secs   av.it.:  10.6
      thresh= 1.731E-04 alpha_mix =  0.700 |ddv_scf|^2 =  4.216E-06

      iter #   3 total cpu time :    18.4 secs   av.it.:   9.7
      thresh= 2.053E-04 alpha_mix =  0.700 |ddv_scf|^2 =  2.126E-09

      iter #   4 total cpu time :    18.7 secs   av.it.:  10.4
      thresh= 4.611E-06 alpha_mix =  0.700 |ddv_scf|^2 =  1.218E-10

      iter #   5 total cpu time :    19.1 secs   av.it.:  10.7
      thresh= 1.103E-06 alpha_mix =  0.700 |ddv_scf|^2 =  7.192E-13

      iter #   6 total cpu time :    19.4 secs   av.it.:  10.6
      thresh= 8.481E-08 alpha_mix =  0.700 |ddv_scf|^2 =  1.610E-14

      iter #   7 total cpu time :    19.6 secs   av.it.:  10.3
      thresh= 1.269E-08 alpha_mix =  0.700 |ddv_scf|^2 =  2.101E-16

     End of self-consistent calculation

     Convergence has been achieved 


     Representation #   3 modes #   5   6

     Self-consistent Calculation

      iter #   1 total cpu time :    20.0 secs   av.it.:   6.1
      thresh= 1.000E-02 alpha_mix =  0.700 |ddv_scf|^2 =  5.182E-07

      iter #   2 total cpu time :    20.4 secs   av.it.:  10.9
      thresh= 7.199E-05 alpha_mix =  0.700 |ddv_scf|^2 =  1.278E-07

      iter #   3 total cpu time :    20.7 secs   av.it.:  10.4
      thresh= 3.575E-05 alpha_mix =  0.700 |ddv_scf|^2 =  1.100E-09

      iter #   4 total cpu time :    21.0 secs   av.it.:  10.1
      thresh= 3.316E-06 alpha_mix =  0.700 |ddv_scf|^2 =  5.526E-13

      iter #   5 total cpu time :    21.3 secs   av.it.:  10.4
      thresh= 7.434E-08 alpha_mix =  0.700 |ddv_scf|^2 =  1.688E-14

      iter #   6 total cpu time :    21.6 secs   av.it.:  10.2
      thresh= 1.299E-08 alpha_mix =  0.700 |ddv_scf|^2 =  4.348E-17

     End of self-consistent calculation

     Convergence has been achieved 
 
     Number of q in the star =    3
     List of q in the star:
          1   0.000000000  -1.000000000   0.000000000
          2  -1.000000000   0.000000000   0.000000000
          3   0.000000000   0.000000000   1.000000000

     Diagonalizing the dynamical matrix

     q = (    0.000000000  -1.000000000   0.000000000 ) 

 **************************************************************************
     freq (    1) =       4.014074 [THz] =     133.895105 [cm-1]
     freq (    2) =       4.014074 [THz] =     133.895105 [cm-1]
     freq (    3) =      12.134423 [THz] =     404.760786 [cm-1]
     freq (    4) =      12.134423 [THz] =     404.760786 [cm-1]
     freq (    5) =      13.706442 [THz] =     457.197690 [cm-1]
     freq (    6) =      13.706442 [THz] =     457.197690 [cm-1]
 **************************************************************************
 
     init_run     :      0.13s CPU      0.16s WALL (       2 calls)
     electrons    :      0.37s CPU      0.39s WALL (       2 calls)

     Called by init_run:
     wfcinit      :      0.00s CPU      0.01s WALL (       2 calls)
     potinit      :      0.01s CPU      0.01s WALL (       2 calls)
     hinit0       :      0.09s CPU      0.09s WALL (       2 calls)

     Called by electrons:
     c_bands      :      0.37s CPU      0.39s WALL (       2 calls)
     v_of_rho     :      0.01s CPU      0.01s WALL (       3 calls)
     newd         :      0.04s CPU      0.04s WALL (       3 calls)

     Called by c_bands:
     init_us_2    :      0.04s CPU      0.04s WALL (    1015 calls)
     init_us_2:cp :      0.04s CPU      0.04s WALL (    1015 calls)
     cegterg      :      0.29s CPU      0.30s WALL (      50 calls)

     Called by *egterg:
     cdiaghg      :      0.04s CPU      0.04s WALL (     745 calls)
     h_psi        :      3.31s CPU      3.57s WALL (   13688 calls)
     s_psi        :      0.22s CPU      0.24s WALL (   27691 calls)
     g_psi        :      0.00s CPU      0.00s WALL (     695 calls)

     Called by h_psi:
     h_psi:calbec :      0.23s CPU      0.25s WALL (   13688 calls)
     vloc_psi     :      2.89s CPU      3.12s WALL (   13688 calls)
     add_vuspsi   :      0.12s CPU      0.13s WALL (   13688 calls)

     General routines
     calbec       :      0.48s CPU      0.52s WALL (   31541 calls)
     fft          :      0.25s CPU      0.33s WALL (    2142 calls)
     ffts         :      0.11s CPU      0.12s WALL (     282 calls)
     fftw         :      3.04s CPU      3.28s WALL (  113244 calls)
     davcio       :      0.05s CPU      0.08s WALL (    6099 calls)
 
     Parallel routines
 
     PHONON       :     13.60s CPU     22.36s WALL

     INITIALIZATION: 
     phq_setup    :      0.02s CPU      0.02s WALL (       3 calls)
     phq_init     :      0.38s CPU      0.39s WALL (       3 calls)
 
     phq_init     :      0.38s CPU      0.39s WALL (       3 calls)
     set_drhoc    :      0.09s CPU      0.09s WALL (       9 calls)
     init_vloc    :      0.01s CPU      0.01s WALL (       3 calls)
     init_us_1    :      0.11s CPU      0.11s WALL (       3 calls)
     init_us_2    :      0.04s CPU      0.04s WALL (    1015 calls)
     newd         :      0.04s CPU      0.04s WALL (       3 calls)
     dvanqq       :      0.09s CPU      0.09s WALL (       3 calls)
     drho         :      0.14s CPU      0.14s WALL (       3 calls)
     drhous       :      0.05s CPU      0.05s WALL (       3 calls)
     nldyntot     :      0.00s CPU      0.00s WALL (       3 calls)
 
     DYNAMICAL MATRIX:
     dynmat0      :      0.08s CPU      0.09s WALL (       3 calls)
     phqscf       :     10.76s CPU     17.28s WALL (       3 calls)
     dynmatrix    :      0.20s CPU      0.20s WALL (       3 calls)
 
     phqscf       :     10.76s CPU     17.28s WALL (       3 calls)
     solve_linter :     10.62s CPU     15.99s WALL (       9 calls)
     drhodv       :      0.04s CPU      0.04s WALL (       9 calls)
 
     dynmat0      :      0.08s CPU      0.09s WALL (       3 calls)
     dynmat_us    :      0.01s CPU      0.02s WALL (       3 calls)
     d2ionq       :      0.00s CPU      0.00s WALL (       3 calls)
     dynmatcc     :      0.06s CPU      0.06s WALL (       3 calls)
 
     dynmat_us    :      0.01s CPU      0.02s WALL (       3 calls)
     addusdynmat  :      0.00s CPU      0.00s WALL (       3 calls)
 
     phqscf       :     10.76s CPU     17.28s WALL (       3 calls)
     solve_linter :     10.62s CPU     15.99s WALL (       9 calls)
 
     solve_linter :     10.62s CPU     15.99s WALL (       9 calls)
     dvqpsi_us    :      0.23s CPU      0.24s WALL (     210 calls)
                                        0.00s GPU  (     210 calls)
     sth_kernel   :      4.71s CPU      5.11s WALL (      56 calls)
     h_prec       :      0.02s CPU      0.03s WALL (     615 calls)
     apply_dpot_b :      0.23s CPU      0.26s WALL (     885 calls)
     ortho        :      0.05s CPU      0.06s WALL (    1095 calls)
     cgsolve      :      3.99s CPU      4.32s WALL (    1095 calls)
     incdrhoscf   :      0.32s CPU      0.35s WALL (    1095 calls)
                                        0.00s GPU  (    1095 calls)
     addusddens   :      0.41s CPU      0.42s WALL (      60 calls)
     dv_of_drho   :      0.10s CPU      0.11s WALL (     117 calls)
     mix_pot      :      0.13s CPU      2.22s WALL (      56 calls)
     psymdvscf    :      2.19s CPU      2.22s WALL (      51 calls)
     newdq        :      0.74s CPU      0.76s WALL (      56 calls)
     adddvscf     :      0.02s CPU      0.02s WALL (     885 calls)
     drhodvus     :      0.02s CPU      0.02s WALL (       9 calls)
 
     dvqpsi_us    :      0.23s CPU      0.24s WALL (     210 calls)
                                        0.00s GPU  (     210 calls)
     dvqpsi_us_on :      0.06s CPU      0.06s WALL (     210 calls)
 
     cgsolve      :      3.99s CPU      4.32s WALL (    1095 calls)
     ch_psi       :      3.81s CPU      4.11s WALL (   12893 calls)
 
     ch_psi       :      3.81s CPU      4.11s WALL (   12893 calls)
     h_psi        :      3.31s CPU      3.57s WALL (   13688 calls)
     last         :      0.53s CPU      0.57s WALL (   12893 calls)
 
     h_psi        :      3.31s CPU      3.57s WALL (   13688 calls)
     add_vuspsi   :      0.12s CPU      0.13s WALL (   13688 calls)
 
     incdrhoscf   :      0.32s CPU      0.35s WALL (    1095 calls)
                                        0.00s GPU  (    1095 calls)
     addusdbec    :      0.03s CPU      0.03s WALL (    1275 calls)
 
     drhodvus     :      0.02s CPU      0.02s WALL (       9 calls)
 
      General routines
     calbec       :      0.48s CPU      0.52s WALL (   31541 calls)
     fft          :      0.25s CPU      0.33s WALL (    2142 calls)
     ffts         :      0.11s CPU      0.12s WALL (     282 calls)
     fftw         :      3.04s CPU      3.28s WALL (  113244 calls)
     davcio       :      0.05s CPU      0.08s WALL (    6099 calls)
     write_rec    :      0.23s CPU      4.89s WALL (      65 calls)
 
      Additional routines
     ch_psi       :      3.81s CPU      4.11s WALL (   12893 calls)
     last         :      0.53s CPU      0.57s WALL (   12893 calls)
     Hesh         :      0.02s CPU      0.02s WALL (   12893 calls)
     ch_psi_all_k :      0.48s CPU      0.51s WALL (   12893 calls)
                                        0.00s GPU  (   12893 calls)
     ch_psi_calbe :      0.19s CPU      0.21s WALL (   12893 calls)
                                        0.00s GPU  (   12893 calls)
     h_psi_bgrp   :      3.34s CPU      3.60s WALL (   13688 calls)
     h_psi        :      3.31s CPU      3.57s WALL (   13688 calls)
     h_psi:pot    :      3.28s CPU      3.54s WALL (   13688 calls)
     h_psi:calbec :      0.23s CPU      0.25s WALL (   13688 calls)
     s_psi_bgrp   :      0.27s CPU      0.29s WALL (   27691 calls)
     s_psi        :      0.22s CPU      0.24s WALL (   27691 calls)
 
 
     PHONON       :     13.60s CPU     22.36s WALL

 
   This run was terminated on:   2:41: 2  27Dec2022            

=------------------------------------------------------------------------------=
   JOB DONE.
=------------------------------------------------------------------------------=

     Program Q2R v.7.1 starts on 27Dec2022 at  2:41: 4 

     This program is part of the open-source Quantum ESPRESSO suite
     for quantum simulation of materials; please cite
         "P. Giannozzi et al., J. Phys.:Condens. Matter 21 395502 (2009);
         "P. Giannozzi et al., J. Phys.:Condens. Matter 29 465901 (2017);
         "P. Giannozzi et al., J. Chem. Phys. 152 154105 (2020);
          URL http://www.quantum-espresso.org", 
     in publications or presentations arising from this work. More details at
     http://www.quantum-espresso.org/quote

     Parallel version (MPI), running on    24 processors

     MPI processes distributed on     1 nodes
     R & G space division:  proc/nbgrp/npool/nimage =      24
     105384 MiB available memory on the printing compute node when the environment starts
 

  reading grid info from file Si.dyn0    

  reading force constants from file Si.dyn1
 macroscopic fields = T
  14.37600   0.00000   0.00000
   0.00000  14.37600   0.00000
   0.00000   0.00000  14.37600
  na=            1
  -0.08618   0.00000   0.00000
   0.00000  -0.08618   0.00000
   0.00000   0.00000  -0.08618
  na=            2
  -0.08618   0.00000   0.00000
   0.00000  -0.08618   0.00000
   0.00000   0.00000  -0.08618
  nqs=            1
 q=   0.00000000  0.00000000  0.00000000
  reading force constants from file Si.dyn2
  nqs=            4
 q=   0.50000000 -0.50000000  0.50000000
 q=   0.50000000  0.50000000 -0.50000000
 q=  -0.50000000 -0.50000000 -0.50000000
 q=   0.50000000 -0.50000000 -0.50000000
  reading force constants from file Si.dyn3
  nqs=            3
 q=   0.00000000 -1.00000000  0.00000000
 q=  -1.00000000  0.00000000  0.00000000
 q=   0.00000000  0.00000000  1.00000000

      q-space grid ok, #points =    8

      fft-check success (sum of imaginary terms < 10^-12)
 
     Q2R          :      0.01s CPU      0.01s WALL

 
   This run was terminated on:   2:41: 4  27Dec2022            

=------------------------------------------------------------------------------=
   JOB DONE.
=------------------------------------------------------------------------------=

 style : tpiba
   0.00000    0.00000    0.00000  53  !  GAMMA
   0.00000   -1.00000    0.00000  40  !  X
  -0.25000   -1.00000   -0.25000  1  !  U
   0.00000   -0.75000   -0.75000  53  !  K
   0.00000    0.00000    0.00000  43  !  GAMMA
  -0.50000   -0.50000   -0.50000  35  !  L
   0.00000   -1.00000   -0.50000  25  !  W
   0.00000   -1.00000    0.00000  1  !  X
 Output band.in

     Program MATDYN v.7.1 starts on 27Dec2022 at  2:41: 7 

     This program is part of the open-source Quantum ESPRESSO suite
     for quantum simulation of materials; please cite
         "P. Giannozzi et al., J. Phys.:Condens. Matter 21 395502 (2009);
         "P. Giannozzi et al., J. Phys.:Condens. Matter 29 465901 (2017);
         "P. Giannozzi et al., J. Chem. Phys. 152 154105 (2020);
          URL http://www.quantum-espresso.org", 
     in publications or presentations arising from this work. More details at
     http://www.quantum-espresso.org/quote

     Parallel version (MPI), running on    24 processors

     MPI processes distributed on     1 nodes
     R & G space division:  proc/nbgrp/npool/nimage =      24
     105388 MiB available memory on the printing compute node when the environment starts
 
 mass for atomic type   1 not given; uses mass from file Si.fc                                                                                                                                                                                                                                                           
 
     MATDYN       :      0.03s CPU      0.04s WALL

 
   This run was terminated on:   2:41: 7  27Dec2022            

=------------------------------------------------------------------------------=
   JOB DONE.
=------------------------------------------------------------------------------=
 Output fig_band.png

     Program MATDYN v.7.1 starts on 27Dec2022 at  2:41:10 

     This program is part of the open-source Quantum ESPRESSO suite
     for quantum simulation of materials; please cite
         "P. Giannozzi et al., J. Phys.:Condens. Matter 21 395502 (2009);
         "P. Giannozzi et al., J. Phys.:Condens. Matter 29 465901 (2017);
         "P. Giannozzi et al., J. Chem. Phys. 152 154105 (2020);
          URL http://www.quantum-espresso.org", 
     in publications or presentations arising from this work. More details at
     http://www.quantum-espresso.org/quote

     Parallel version (MPI), running on    24 processors

     MPI processes distributed on     1 nodes
     R & G space division:  proc/nbgrp/npool/nimage =      24
     105383 MiB available memory on the printing compute node when the environment starts
 
 mass for atomic type   1 not given; uses mass from file Si.fc                                                                                                                                                                                                                                                           
 
     MATDYN       :      2.88s CPU      2.89s WALL

 
   This run was terminated on:   2:41:13  27Dec2022            

=------------------------------------------------------------------------------=
   JOB DONE.
=------------------------------------------------------------------------------=
 Output fig_dos.png
 Output fig_dos.png
 Output fig_dos.png
 Output fig_dos.png
 Output fig_dos.png
 Output fig_dos.png
 Output fig_dos.png
 Output fig_dos.png
 Output fig_dos.png
 Output fig_dos.png
 Output fig_dos.png
 Output fig_dos.png
 Output fig_dos.png
 Output fig_dos.png
 Output fig_dos.png
 Output fig_dos.png
 Output fig_dos.png
 Output fig_dos.png
 Output fig_dos.png
 Output fig_dos.png
 Output fig_dos.png
 Output fig_dos.png
 Output fig_dos.png
 Output fig_dos.png
