 
:: initializing oneAPI environment ...
   -bash: BASH_VERSION = 4.2.46(2)-release
   args: Using "$@" for setvars.sh arguments: 
:: advisor -- latest
:: ccl -- latest
:: clck -- latest
:: compiler -- latest
:: dal -- latest
:: debugger -- latest
:: dev-utilities -- latest
:: dnnl -- latest
:: dpcpp-ct -- latest
:: dpl -- latest
:: inspector -- latest
:: intelpython -- latest
:: ipp -- latest
:: ippcp -- latest
:: itac -- latest
:: mkl -- latest
:: mpi -- latest
:: tbb -- latest
:: vpl -- latest
:: vtune -- latest
:: oneAPI environment initialized ::
 
rm: cannot remove 'phonon.o*': No such file or directory

     Program PWSCF v.7.1 starts on 26Dec2022 at 21:10:27 

     This program is part of the open-source Quantum ESPRESSO suite
     for quantum simulation of materials; please cite
         "P. Giannozzi et al., J. Phys.:Condens. Matter 21 395502 (2009);
         "P. Giannozzi et al., J. Phys.:Condens. Matter 29 465901 (2017);
         "P. Giannozzi et al., J. Chem. Phys. 152 154105 (2020);
          URL http://www.quantum-espresso.org", 
     in publications or presentations arising from this work. More details at
     http://www.quantum-espresso.org/quote

     Parallel version (MPI), running on    24 processors

     MPI processes distributed on     1 nodes
     107111 MiB available memory on the printing compute node when the environment starts
 
     Waiting for input...
     Reading input from standard input
Warning: card &CELL ignored
Warning: card / ignored

     Current dimensions of program PWSCF are:
     Max number of different atomic species (ntypx) = 10
     Max number of k-points (npk) =  40000
     Max angular momentum in pseudopotentials (lmaxx) =  4
 
     K-points division:     npool     =       2
     R & G space division:  proc/nbgrp/npool/nimage =      12
     Subspace diagonalization in iterative solution of the eigenvalue problem:
     a serial algorithm will be used

 
     Parallelization info
     --------------------
     sticks:   dense  smooth     PW     G-vecs:    dense   smooth      PW
     Min          71      71     21                 1405     1405     227
     Max          72      72     22                 1408     1408     231
     Sum         859     859    253                16865    16865    2733
 
     Using Slab Decomposition
 


     bravais-lattice index     =            2
     lattice parameter (alat)  =      10.2273  a.u.
     unit-cell volume          =     267.4379 (a.u.)^3
     number of atoms/cell      =            2
     number of atomic types    =            1
     number of electrons       =         8.00
     number of Kohn-Sham states=            4
     kinetic-energy cutoff     =      60.0000  Ry
     charge density cutoff     =     240.0000  Ry
     scf convergence threshold =      1.0E-06
     mixing beta               =       0.7000
     number of iterations used =            8  plain     mixing
     Exchange-correlation= PBESOL
                           (   1   4  10   8   0   0   0)

     celldm(1)=  10.227300  celldm(2)=   0.000000  celldm(3)=   0.000000
     celldm(4)=   0.000000  celldm(5)=   0.000000  celldm(6)=   0.000000

     crystal axes: (cart. coord. in units of alat)
               a(1) = (  -0.500000   0.000000   0.500000 )  
               a(2) = (   0.000000   0.500000   0.500000 )  
               a(3) = (  -0.500000   0.500000   0.000000 )  

     reciprocal axes: (cart. coord. in units 2 pi/alat)
               b(1) = ( -1.000000 -1.000000  1.000000 )  
               b(2) = (  1.000000  1.000000  1.000000 )  
               b(3) = ( -1.000000  1.000000 -1.000000 )  


     PseudoPot. # 1 for Si read from file:
     ../pseudo/Si.pbesol-n-rrkjus_psl.1.0.0.UPF
     MD5 check sum: c4212819de858c94c3a1644338846ac9
     Pseudo is Ultrasoft + core correction, Zval =  4.0
     Generated using "atomic" code by A. Dal Corso  v.6.0 svn rev. 13079
     Using radial grid of 1141 points,  6 beta functions with: 
                l(1) =   0
                l(2) =   0
                l(3) =   1
                l(4) =   1
                l(5) =   2
                l(6) =   2
     Q(r) pseudized with 0 coefficients 


     atomic species   valence    mass     pseudopotential
        Si             4.00    28.08550     Si( 1.00)

     48 Sym. Ops., with inversion, found (24 have fractional translation)



   Cartesian axes

     site n.     atom                  positions (alat units)
         1           Si  tau(   1) = (  -0.2500000   0.2500000   0.2500000  )
         2           Si  tau(   2) = (  -0.5000000   0.5000000   0.5000000  )

     number of k points=    10
                       cart. coord. in units 2pi/alat
        k(    1) = (  -0.1250000   0.1250000   0.1250000), wk =   0.0625000
        k(    2) = (  -0.3750000   0.3750000  -0.1250000), wk =   0.1875000
        k(    3) = (   0.3750000  -0.3750000   0.6250000), wk =   0.1875000
        k(    4) = (   0.1250000  -0.1250000   0.3750000), wk =   0.1875000
        k(    5) = (  -0.1250000   0.6250000   0.1250000), wk =   0.1875000
        k(    6) = (   0.6250000  -0.1250000   0.8750000), wk =   0.3750000
        k(    7) = (   0.3750000   0.1250000   0.6250000), wk =   0.3750000
        k(    8) = (  -0.1250000  -0.8750000   0.1250000), wk =   0.1875000
        k(    9) = (  -0.3750000   0.3750000   0.3750000), wk =   0.0625000
        k(   10) = (   0.3750000  -0.3750000   1.1250000), wk =   0.1875000

     Dense  grid:    16865 G-vectors     FFT dimensions: (  36,  36,  36)

     Estimated max dynamical RAM per process >       4.29 MB

     Estimated total dynamical RAM >      98.74 MB

     Initial potential from superposition of free atoms

     starting charge       7.9989, renormalised to       8.0000
     Starting wfcs are    8 randomized atomic wfcs

     total cpu time spent up to now is        0.3 secs

     Self-consistent Calculation

     iteration #  1     ecut=    60.00 Ry     beta= 0.70
     Davidson diagonalization with overlap
     ethr =  1.00E-02,  avg # of iterations =  2.0

     Threshold (ethr) on eigenvalues was too large:
     Diagonalizing with lowered threshold

     Davidson diagonalization with overlap
     ethr =  6.16E-04,  avg # of iterations =  1.7

     total cpu time spent up to now is        0.3 secs

     total energy              =     -22.67449393 Ry
     estimated scf accuracy    <       0.05371620 Ry

     iteration #  2     ecut=    60.00 Ry     beta= 0.70
     Davidson diagonalization with overlap
     ethr =  6.71E-04,  avg # of iterations =  1.0

     total cpu time spent up to now is        0.3 secs

     total energy              =     -22.67658970 Ry
     estimated scf accuracy    <       0.00242940 Ry

     iteration #  3     ecut=    60.00 Ry     beta= 0.70
     Davidson diagonalization with overlap
     ethr =  3.04E-05,  avg # of iterations =  2.8

     total cpu time spent up to now is        0.3 secs

     total energy              =     -22.67750591 Ry
     estimated scf accuracy    <       0.00012773 Ry

     iteration #  4     ecut=    60.00 Ry     beta= 0.70
     Davidson diagonalization with overlap
     ethr =  1.60E-06,  avg # of iterations =  4.3

     total cpu time spent up to now is        0.3 secs

     total energy              =     -22.67757171 Ry
     estimated scf accuracy    <       0.00001751 Ry

     iteration #  5     ecut=    60.00 Ry     beta= 0.70
     Davidson diagonalization with overlap
     ethr =  2.19E-07,  avg # of iterations =  3.1

     total cpu time spent up to now is        0.4 secs

     End of self-consistent calculation

          k =-0.1250 0.1250 0.1250 (  2094 PWs)   bands (ev):

    -5.5874   4.6496   5.9714   5.9714

          k =-0.3750 0.3750-0.1250 (  2094 PWs)   bands (ev):

    -4.5271   1.5964   3.9054   5.4842

          k = 0.3750-0.3750 0.6250 (  2094 PWs)   bands (ev):

    -3.3343  -0.5651   3.9467   4.6793

          k = 0.1250-0.1250 0.3750 (  2089 PWs)   bands (ev):

    -5.0432   3.0177   4.9200   5.0011

          k =-0.1250 0.6250 0.1250 (  2095 PWs)   bands (ev):

    -3.9793   1.3052   3.5362   4.0174

          k = 0.6250-0.1250 0.8750 (  2115 PWs)   bands (ev):

    -2.2737  -0.7040   2.1067   3.2362

          k = 0.3750 0.1250 0.6250 (  2095 PWs)   bands (ev):

    -3.5445   0.3789   2.8746   4.2957

          k =-0.1250-0.8750 0.1250 (  2101 PWs)   bands (ev):

    -2.4593  -0.5974   2.7508   3.5366

          k =-0.3750 0.3750 0.3750 (  2099 PWs)   bands (ev):

    -4.0750   0.2464   5.1657   5.1657

          k = 0.3750-0.3750 1.1250 (  2102 PWs)   bands (ev):

    -2.8243  -0.4309   2.1841   4.3478

     highest occupied level (ev):     5.9714

!    total energy              =     -22.67757790 Ry
     estimated scf accuracy    <       0.00000024 Ry

     The total energy is the sum of the following terms:
     one-electron contribution =       5.25743361 Ry
     hartree contribution      =       1.07125914 Ry
     xc contribution           =     -12.15162303 Ry
     ewald contribution        =     -16.85464760 Ry

     convergence has been achieved in   5 iterations

     Writing all to output data dir ./out/Si.save/
 
     init_run     :      0.10s CPU      0.15s WALL (       1 calls)
     electrons    :      0.09s CPU      0.10s WALL (       1 calls)

     Called by init_run:
     wfcinit      :      0.01s CPU      0.01s WALL (       1 calls)
     potinit      :      0.03s CPU      0.03s WALL (       1 calls)
     hinit0       :      0.05s CPU      0.10s WALL (       1 calls)

     Called by electrons:
     c_bands      :      0.05s CPU      0.05s WALL (       6 calls)
     sum_band     :      0.02s CPU      0.02s WALL (       6 calls)
     v_of_rho     :      0.01s CPU      0.01s WALL (       6 calls)
     newd         :      0.01s CPU      0.01s WALL (       6 calls)
     mix_rho      :      0.00s CPU      0.00s WALL (       6 calls)

     Called by c_bands:
     init_us_2    :      0.00s CPU      0.00s WALL (      65 calls)
     init_us_2:cp :      0.00s CPU      0.00s WALL (      65 calls)
     cegterg      :      0.03s CPU      0.04s WALL (      30 calls)

     Called by *egterg:
     cdiaghg      :      0.00s CPU      0.00s WALL (     102 calls)
     h_psi        :      0.03s CPU      0.04s WALL (     112 calls)
     s_psi        :      0.00s CPU      0.00s WALL (     112 calls)
     g_psi        :      0.00s CPU      0.00s WALL (      77 calls)

     Called by h_psi:
     h_psi:calbec :      0.00s CPU      0.00s WALL (     112 calls)
     vloc_psi     :      0.03s CPU      0.03s WALL (     112 calls)
     add_vuspsi   :      0.00s CPU      0.00s WALL (     112 calls)

     General routines
     calbec       :      0.00s CPU      0.00s WALL (     142 calls)
     fft          :      0.03s CPU      0.08s WALL (      67 calls)
     ffts         :      0.00s CPU      0.00s WALL (       6 calls)
     fftw         :      0.03s CPU      0.03s WALL (     902 calls)
 
     Parallel routines
 
     PWSCF        :      0.29s CPU      0.45s WALL

 
   This run was terminated on:  21:10:28  26Dec2022            

=------------------------------------------------------------------------------=
   JOB DONE.
=------------------------------------------------------------------------------=

     Program PHONON v.7.1 starts on 26Dec2022 at 21:10:29 

     This program is part of the open-source Quantum ESPRESSO suite
     for quantum simulation of materials; please cite
         "P. Giannozzi et al., J. Phys.:Condens. Matter 21 395502 (2009);
         "P. Giannozzi et al., J. Phys.:Condens. Matter 29 465901 (2017);
         "P. Giannozzi et al., J. Chem. Phys. 152 154105 (2020);
          URL http://www.quantum-espresso.org", 
     in publications or presentations arising from this work. More details at
     http://www.quantum-espresso.org/quote

     Parallel version (MPI), running on    24 processors

     MPI processes distributed on     1 nodes
     107088 MiB available memory on the printing compute node when the environment starts
 
     Waiting for input...
     Reading input from standard input
      Title line not specified: using 'default'.

     Reading xml data from directory:

     ./out/Si_G.save/
     Message from routine qexsd_readschema :
     xml data file ./out/Si_G.save/data-file-schema.xml not found

 %%%%%%%%%%%%%%%%%%%%%%%%%%%%%%%%%%%%%%%%%%%%%%%%%%%%%%%%%%%%%%%%%%%%%%%%%%%%%%
     Error in routine read_xml_file (1):
     fatal error reading xml file
 %%%%%%%%%%%%%%%%%%%%%%%%%%%%%%%%%%%%%%%%%%%%%%%%%%%%%%%%%%%%%%%%%%%%%%%%%%%%%%

     stopping ...

 %%%%%%%%%%%%%%%%%%%%%%%%%%%%%%%%%%%%%%%%%%%%%%%%%%%%%%%%%%%%%%%%%%%%%%%%%%%%%%
     Error in routine read_xml_file (1):
     fatal error reading xml file
 %%%%%%%%%%%%%%%%%%%%%%%%%%%%%%%%%%%%%%%%%%%%%%%%%%%%%%%%%%%%%%%%%%%%%%%%%%%%%%

     stopping ...

 %%%%%%%%%%%%%%%%%%%%%%%%%%%%%%%%%%%%%%%%%%%%%%%%%%%%%%%%%%%%%%%%%%%%%%%%%%%%%%
     Error in routine read_xml_file (1):
     fatal error reading xml file
 %%%%%%%%%%%%%%%%%%%%%%%%%%%%%%%%%%%%%%%%%%%%%%%%%%%%%%%%%%%%%%%%%%%%%%%%%%%%%%

     stopping ...

 %%%%%%%%%%%%%%%%%%%%%%%%%%%%%%%%%%%%%%%%%%%%%%%%%%%%%%%%%%%%%%%%%%%%%%%%%%%%%%
     Error in routine read_xml_file (1):
     fatal error reading xml file
 %%%%%%%%%%%%%%%%%%%%%%%%%%%%%%%%%%%%%%%%%%%%%%%%%%%%%%%%%%%%%%%%%%%%%%%%%%%%%%

     stopping ...

 %%%%%%%%%%%%%%%%%%%%%%%%%%%%%%%%%%%%%%%%%%%%%%%%%%%%%%%%%%%%%%%%%%%%%%%%%%%%%%
     Error in routine read_xml_file (1):
     fatal error reading xml file
 %%%%%%%%%%%%%%%%%%%%%%%%%%%%%%%%%%%%%%%%%%%%%%%%%%%%%%%%%%%%%%%%%%%%%%%%%%%%%%

     stopping ...

 %%%%%%%%%%%%%%%%%%%%%%%%%%%%%%%%%%%%%%%%%%%%%%%%%%%%%%%%%%%%%%%%%%%%%%%%%%%%%%
     Error in routine read_xml_file (1):
     fatal error reading xml file
 %%%%%%%%%%%%%%%%%%%%%%%%%%%%%%%%%%%%%%%%%%%%%%%%%%%%%%%%%%%%%%%%%%%%%%%%%%%%%%

     stopping ...

 %%%%%%%%%%%%%%%%%%%%%%%%%%%%%%%%%%%%%%%%%%%%%%%%%%%%%%%%%%%%%%%%%%%%%%%%%%%%%%
     Error in routine read_xml_file (1):
     fatal error reading xml file
 %%%%%%%%%%%%%%%%%%%%%%%%%%%%%%%%%%%%%%%%%%%%%%%%%%%%%%%%%%%%%%%%%%%%%%%%%%%%%%

     stopping ...

 %%%%%%%%%%%%%%%%%%%%%%%%%%%%%%%%%%%%%%%%%%%%%%%%%%%%%%%%%%%%%%%%%%%%%%%%%%%%%%
     Error in routine read_xml_file (1):
     fatal error reading xml file
 %%%%%%%%%%%%%%%%%%%%%%%%%%%%%%%%%%%%%%%%%%%%%%%%%%%%%%%%%%%%%%%%%%%%%%%%%%%%%%

     stopping ...

 %%%%%%%%%%%%%%%%%%%%%%%%%%%%%%%%%%%%%%%%%%%%%%%%%%%%%%%%%%%%%%%%%%%%%%%%%%%%%%
     Error in routine read_xml_file (1):
     fatal error reading xml file
 %%%%%%%%%%%%%%%%%%%%%%%%%%%%%%%%%%%%%%%%%%%%%%%%%%%%%%%%%%%%%%%%%%%%%%%%%%%%%%

     stopping ...

 %%%%%%%%%%%%%%%%%%%%%%%%%%%%%%%%%%%%%%%%%%%%%%%%%%%%%%%%%%%%%%%%%%%%%%%%%%%%%%
     Error in routine read_xml_file (1):
     fatal error reading xml file
 %%%%%%%%%%%%%%%%%%%%%%%%%%%%%%%%%%%%%%%%%%%%%%%%%%%%%%%%%%%%%%%%%%%%%%%%%%%%%%

     stopping ...

 %%%%%%%%%%%%%%%%%%%%%%%%%%%%%%%%%%%%%%%%%%%%%%%%%%%%%%%%%%%%%%%%%%%%%%%%%%%%%%
     Error in routine read_xml_file (1):
     fatal error reading xml file
 %%%%%%%%%%%%%%%%%%%%%%%%%%%%%%%%%%%%%%%%%%%%%%%%%%%%%%%%%%%%%%%%%%%%%%%%%%%%%%

     stopping ...

 %%%%%%%%%%%%%%%%%%%%%%%%%%%%%%%%%%%%%%%%%%%%%%%%%%%%%%%%%%%%%%%%%%%%%%%%%%%%%%
     Error in routine read_xml_file (1):
     fatal error reading xml file
 %%%%%%%%%%%%%%%%%%%%%%%%%%%%%%%%%%%%%%%%%%%%%%%%%%%%%%%%%%%%%%%%%%%%%%%%%%%%%%

     stopping ...

 %%%%%%%%%%%%%%%%%%%%%%%%%%%%%%%%%%%%%%%%%%%%%%%%%%%%%%%%%%%%%%%%%%%%%%%%%%%%%%
     Error in routine read_xml_file (1):
     fatal error reading xml file
 %%%%%%%%%%%%%%%%%%%%%%%%%%%%%%%%%%%%%%%%%%%%%%%%%%%%%%%%%%%%%%%%%%%%%%%%%%%%%%

     stopping ...

 %%%%%%%%%%%%%%%%%%%%%%%%%%%%%%%%%%%%%%%%%%%%%%%%%%%%%%%%%%%%%%%%%%%%%%%%%%%%%%
     Error in routine read_xml_file (1):
     fatal error reading xml file
 %%%%%%%%%%%%%%%%%%%%%%%%%%%%%%%%%%%%%%%%%%%%%%%%%%%%%%%%%%%%%%%%%%%%%%%%%%%%%%

     stopping ...

 %%%%%%%%%%%%%%%%%%%%%%%%%%%%%%%%%%%%%%%%%%%%%%%%%%%%%%%%%%%%%%%%%%%%%%%%%%%%%%
     Error in routine read_xml_file (1):
     fatal error reading xml file
 %%%%%%%%%%%%%%%%%%%%%%%%%%%%%%%%%%%%%%%%%%%%%%%%%%%%%%%%%%%%%%%%%%%%%%%%%%%%%%

     stopping ...

 %%%%%%%%%%%%%%%%%%%%%%%%%%%%%%%%%%%%%%%%%%%%%%%%%%%%%%%%%%%%%%%%%%%%%%%%%%%%%%
     Error in routine read_xml_file (1):
     fatal error reading xml file
 %%%%%%%%%%%%%%%%%%%%%%%%%%%%%%%%%%%%%%%%%%%%%%%%%%%%%%%%%%%%%%%%%%%%%%%%%%%%%%

     stopping ...

 %%%%%%%%%%%%%%%%%%%%%%%%%%%%%%%%%%%%%%%%%%%%%%%%%%%%%%%%%%%%%%%%%%%%%%%%%%%%%%
     Error in routine read_xml_file (1):
     fatal error reading xml file
 %%%%%%%%%%%%%%%%%%%%%%%%%%%%%%%%%%%%%%%%%%%%%%%%%%%%%%%%%%%%%%%%%%%%%%%%%%%%%%

     stopping ...

 %%%%%%%%%%%%%%%%%%%%%%%%%%%%%%%%%%%%%%%%%%%%%%%%%%%%%%%%%%%%%%%%%%%%%%%%%%%%%%
     Error in routine read_xml_file (1):
     fatal error reading xml file
 %%%%%%%%%%%%%%%%%%%%%%%%%%%%%%%%%%%%%%%%%%%%%%%%%%%%%%%%%%%%%%%%%%%%%%%%%%%%%%

     stopping ...

 %%%%%%%%%%%%%%%%%%%%%%%%%%%%%%%%%%%%%%%%%%%%%%%%%%%%%%%%%%%%%%%%%%%%%%%%%%%%%%
     Error in routine read_xml_file (1):
     fatal error reading xml file
 %%%%%%%%%%%%%%%%%%%%%%%%%%%%%%%%%%%%%%%%%%%%%%%%%%%%%%%%%%%%%%%%%%%%%%%%%%%%%%

     stopping ...

 %%%%%%%%%%%%%%%%%%%%%%%%%%%%%%%%%%%%%%%%%%%%%%%%%%%%%%%%%%%%%%%%%%%%%%%%%%%%%%
     Error in routine read_xml_file (1):
     fatal error reading xml file
 %%%%%%%%%%%%%%%%%%%%%%%%%%%%%%%%%%%%%%%%%%%%%%%%%%%%%%%%%%%%%%%%%%%%%%%%%%%%%%

     stopping ...

 %%%%%%%%%%%%%%%%%%%%%%%%%%%%%%%%%%%%%%%%%%%%%%%%%%%%%%%%%%%%%%%%%%%%%%%%%%%%%%
     Error in routine read_xml_file (1):
     fatal error reading xml file
 %%%%%%%%%%%%%%%%%%%%%%%%%%%%%%%%%%%%%%%%%%%%%%%%%%%%%%%%%%%%%%%%%%%%%%%%%%%%%%

     stopping ...

 %%%%%%%%%%%%%%%%%%%%%%%%%%%%%%%%%%%%%%%%%%%%%%%%%%%%%%%%%%%%%%%%%%%%%%%%%%%%%%
     Error in routine read_xml_file (1):
     fatal error reading xml file
 %%%%%%%%%%%%%%%%%%%%%%%%%%%%%%%%%%%%%%%%%%%%%%%%%%%%%%%%%%%%%%%%%%%%%%%%%%%%%%

     stopping ...

 %%%%%%%%%%%%%%%%%%%%%%%%%%%%%%%%%%%%%%%%%%%%%%%%%%%%%%%%%%%%%%%%%%%%%%%%%%%%%%
     Error in routine read_xml_file (1):
     fatal error reading xml file
 %%%%%%%%%%%%%%%%%%%%%%%%%%%%%%%%%%%%%%%%%%%%%%%%%%%%%%%%%%%%%%%%%%%%%%%%%%%%%%

     stopping ...

 %%%%%%%%%%%%%%%%%%%%%%%%%%%%%%%%%%%%%%%%%%%%%%%%%%%%%%%%%%%%%%%%%%%%%%%%%%%%%%
     Error in routine read_xml_file (1):
     fatal error reading xml file
 %%%%%%%%%%%%%%%%%%%%%%%%%%%%%%%%%%%%%%%%%%%%%%%%%%%%%%%%%%%%%%%%%%%%%%%%%%%%%%

     stopping ...
Abort(1) on node 0 (rank 0 in comm 0): application called MPI_Abort(MPI_COMM_WORLD, 1) - process 0

     Program PHONON v.7.1 starts on 26Dec2022 at 21:10:31 

     This program is part of the open-source Quantum ESPRESSO suite
     for quantum simulation of materials; please cite
         "P. Giannozzi et al., J. Phys.:Condens. Matter 21 395502 (2009);
         "P. Giannozzi et al., J. Phys.:Condens. Matter 29 465901 (2017);
         "P. Giannozzi et al., J. Chem. Phys. 152 154105 (2020);
          URL http://www.quantum-espresso.org", 
     in publications or presentations arising from this work. More details at
     http://www.quantum-espresso.org/quote

     Parallel version (MPI), running on    24 processors

     MPI processes distributed on     1 nodes
     106989 MiB available memory on the printing compute node when the environment starts
 
     Waiting for input...
     Reading input from standard input
      Title line not specified: using 'default'.

     Reading xml data from directory:

     ./out/Si.save/
 
     K-points division:     npool     =       2
     R & G space division:  proc/nbgrp/npool/nimage =      12
     Subspace diagonalization in iterative solution of the eigenvalue problem:
     a serial algorithm will be used


     IMPORTANT: XC functional enforced from input :
     Exchange-correlation= PBESOL
                           (   1   4  10   8   0   0   0)
     Any further DFT definition will be discarded
     Please, verify this is what you really want

 
     Parallelization info
     --------------------
     sticks:   dense  smooth     PW     G-vecs:    dense   smooth      PW
     Min          71      71     21                 1405     1405     227
     Max          72      72     22                 1408     1408     231
     Sum         859     859    253                16865    16865    2733
 
     Using Slab Decomposition
 
     Reading collected, re-writing distributed wavefunctions in ./out/


     Dynamical matrices for ( 8, 8, 8)  uniform grid of q-points
     (  29 q-points):
       N         xq(1)         xq(2)         xq(3) 
       1   0.000000000   0.000000000   0.000000000
       2  -0.125000000   0.125000000  -0.125000000
       3  -0.250000000   0.250000000  -0.250000000
       4  -0.375000000   0.375000000  -0.375000000
       5   0.500000000  -0.500000000   0.500000000
       6   0.000000000   0.250000000   0.000000000
       7  -0.125000000   0.375000000  -0.125000000
       8  -0.250000000   0.500000000  -0.250000000
       9   0.625000000  -0.375000000   0.625000000
      10   0.500000000  -0.250000000   0.500000000
      11   0.375000000  -0.125000000   0.375000000
      12   0.250000000   0.000000000   0.250000000
      13   0.000000000   0.500000000   0.000000000
      14  -0.125000000   0.625000000  -0.125000000
      15   0.750000000  -0.250000000   0.750000000
      16   0.625000000  -0.125000000   0.625000000
      17   0.500000000   0.000000000   0.500000000
      18   0.000000000   0.750000000   0.000000000
      19   0.875000000  -0.125000000   0.875000000
      20   0.750000000   0.000000000   0.750000000
      21   0.000000000  -1.000000000   0.000000000
      22  -0.250000000   0.500000000   0.000000000
      23   0.625000000  -0.375000000   0.875000000
      24   0.500000000  -0.250000000   0.750000000
      25   0.750000000  -0.250000000   1.000000000
      26   0.625000000  -0.125000000   0.875000000
      27   0.500000000   0.000000000   0.750000000
      28  -0.250000000  -1.000000000   0.000000000
      29  -0.500000000  -1.000000000   0.000000000

     Calculation of q =    0.0000000   0.0000000   0.0000000

     default                                                                    

     bravais-lattice index     =            2
     lattice parameter (alat)  =      10.2273  a.u.
     unit-cell volume          =     267.4379 (a.u.)^3
     number of atoms/cell      =            2
     number of atomic types    =            1
     kinetic-energy cut-off    =      60.0000  Ry
     charge density cut-off    =     240.0000  Ry
     convergence threshold     =      1.0E-14
     beta                      =       0.7000
     number of iterations used =            4
     Exchange-correlation= PBESOL
                           (   1   4  10   8   0   0   0)


     celldm(1)=   10.22730  celldm(2)=    0.00000  celldm(3)=    0.00000
     celldm(4)=    0.00000  celldm(5)=    0.00000  celldm(6)=    0.00000

     crystal axes: (cart. coord. in units of alat)
               a(1) = ( -0.5000  0.0000  0.5000 )  
               a(2) = (  0.0000  0.5000  0.5000 )  
               a(3) = ( -0.5000  0.5000  0.0000 )  

     reciprocal axes: (cart. coord. in units 2 pi/alat)
               b(1) = ( -1.0000 -1.0000  1.0000 )  
               b(2) = (  1.0000  1.0000  1.0000 )  
               b(3) = ( -1.0000  1.0000 -1.0000 )  


     Atoms inside the unit cell: 

     Cartesian axes

     site n.  atom      mass           positions (alat units)
        1     Si  28.0855   tau(    1) = (   -0.25000    0.25000    0.25000  )
        2     Si  28.0855   tau(    2) = (   -0.50000    0.50000    0.50000  )

     Computing dynamical matrix for 
                    q = (   0.0000000   0.0000000   0.0000000 )
 
     49 Sym.Ops. (with q -> -q+G )


     G cutoff =  635.8776  (   1408 G-vectors)     FFT grid: ( 36, 36, 36)
     number of k points=    10

     PseudoPot. # 1 for Si read from file:
     ../pseudo/Si.pbesol-n-rrkjus_psl.1.0.0.UPF
     MD5 check sum: c4212819de858c94c3a1644338846ac9
     Pseudo is Ultrasoft + core correction, Zval =  4.0
     Generated using "atomic" code by A. Dal Corso  v.6.0 svn rev. 13079
     Using radial grid of 1141 points,  6 beta functions with: 
                l(1) =   0
                l(2) =   0
                l(3) =   1
                l(4) =   1
                l(5) =   2
                l(6) =   2
     Q(r) pseudized with 0 coefficients 


     Mode symmetry, O_h (m-3m)  point group:


     Electric field:
     Dielectric constant
     Born effective charges in two ways 


     Atomic displacements:
     There are    2 irreducible representations

     Representation     1      3 modes -  To be done

     Representation     2      3 modes -  To be done



     Alpha used in Ewald sum =   2.5000
     PHONON       :      0.30s CPU      0.51s WALL


     Electric Fields Calculation

      iter #   1 total cpu time :     0.9 secs   av.it.:   6.5
      thresh= 1.000E-02 alpha_mix =  0.700 |ddv_scf|^2 =  1.525E-07

      iter #   2 total cpu time :     1.2 secs   av.it.:  11.1
      thresh= 3.905E-05 alpha_mix =  0.700 |ddv_scf|^2 =  6.923E-09

      iter #   3 total cpu time :     1.8 secs   av.it.:  10.9
      thresh= 8.321E-06 alpha_mix =  0.700 |ddv_scf|^2 =  1.946E-10

      iter #   4 total cpu time :     2.2 secs   av.it.:  10.8
      thresh= 1.395E-06 alpha_mix =  0.700 |ddv_scf|^2 =  1.508E-12

      iter #   5 total cpu time :     2.5 secs   av.it.:  10.6
      thresh= 1.228E-07 alpha_mix =  0.700 |ddv_scf|^2 =  5.686E-16

     End of electric fields calculation

          Dielectric constant in cartesian axis 

          (      14.302960751      -0.000000000       0.000000000 )
          (      -0.000000000      14.302960751      -0.000000000 )
          (      -0.000000000      -0.000000000      14.302960751 )

          Effective charges (d Force / dE) in cartesian axis without acoustic sum rule applied (asr)

           atom      1   Si Mean Z*:       -0.08475
      Ex  (       -0.08475       -0.00000       -0.00000 )
      Ey  (       -0.00000       -0.08475        0.00000 )
      Ez  (       -0.00000        0.00000       -0.08475 )
           atom      2   Si Mean Z*:       -0.08475
      Ex  (       -0.08475       -0.00000       -0.00000 )
      Ey  (       -0.00000       -0.08475        0.00000 )
      Ez  (        0.00000        0.00000       -0.08475 )

          Effective charges Sum: Mean:       -0.16950
             -0.16950       -0.00000        0.00000
             -0.00000       -0.16950        0.00000
             -0.00000        0.00000       -0.16950

          Effective charges (d Force / dE) in cartesian axis with asr applied: 
           atom      1   Si Mean Z*:       -0.00000
      E*x (       -0.00000       -0.00000       -0.00000 )
      E*y (        0.00000       -0.00000        0.00000 )
      E*z (       -0.00000       -0.00000       -0.00000 )
           atom      2   Si Mean Z*:        0.00000
      E*x (        0.00000        0.00000        0.00000 )
      E*y (        0.00000        0.00000        0.00000 )
      E*z (        0.00000        0.00000        0.00000 )


     Representation #   1 modes #   1   2   3

     Self-consistent Calculation

      iter #   1 total cpu time :     3.1 secs   av.it.:   5.4
      thresh= 1.000E-02 alpha_mix =  0.700 |ddv_scf|^2 =  3.126E-08

      iter #   2 total cpu time :     3.5 secs   av.it.:  10.8
      thresh= 1.768E-05 alpha_mix =  0.700 |ddv_scf|^2 =  1.905E-09

      iter #   3 total cpu time :     4.0 secs   av.it.:  10.7
      thresh= 4.365E-06 alpha_mix =  0.700 |ddv_scf|^2 =  9.869E-11

      iter #   4 total cpu time :     4.4 secs   av.it.:  10.3
      thresh= 9.934E-07 alpha_mix =  0.700 |ddv_scf|^2 =  1.474E-13

      iter #   5 total cpu time :     4.8 secs   av.it.:  11.2
      thresh= 3.839E-08 alpha_mix =  0.700 |ddv_scf|^2 =  2.058E-15

     End of self-consistent calculation

     Convergence has been achieved 


     Representation #   2 modes #   4   5   6

     Self-consistent Calculation

      iter #   1 total cpu time :     5.4 secs   av.it.:   5.7
      thresh= 1.000E-02 alpha_mix =  0.700 |ddv_scf|^2 =  2.923E-08

      iter #   2 total cpu time :     6.0 secs   av.it.:  10.9
      thresh= 1.710E-05 alpha_mix =  0.700 |ddv_scf|^2 =  2.043E-09

      iter #   3 total cpu time :     6.6 secs   av.it.:  10.8
      thresh= 4.520E-06 alpha_mix =  0.700 |ddv_scf|^2 =  9.305E-11

      iter #   4 total cpu time :     7.1 secs   av.it.:  10.9
      thresh= 9.646E-07 alpha_mix =  0.700 |ddv_scf|^2 =  2.377E-13

      iter #   5 total cpu time :     7.4 secs   av.it.:  10.9
      thresh= 4.876E-08 alpha_mix =  0.700 |ddv_scf|^2 =  5.724E-16

     End of self-consistent calculation

     Convergence has been achieved 
 
     Number of q in the star =    1
     List of q in the star:
          1   0.000000000   0.000000000   0.000000000

          Dielectric constant in cartesian axis 

          (      14.302960751      -0.000000000       0.000000000 )
          (      -0.000000000      14.302960751      -0.000000000 )
          (      -0.000000000      -0.000000000      14.302960751 )

          Effective charges (d Force / dE) in cartesian axis without acoustic sum rule applied (asr)

           atom      1   Si Mean Z*:       -0.08475
      Ex  (       -0.08475       -0.00000       -0.00000 )
      Ey  (       -0.00000       -0.08475        0.00000 )
      Ez  (       -0.00000        0.00000       -0.08475 )
           atom      2   Si Mean Z*:       -0.08475
      Ex  (       -0.08475       -0.00000       -0.00000 )
      Ey  (       -0.00000       -0.08475        0.00000 )
      Ez  (        0.00000        0.00000       -0.08475 )

          Effective charges Sum: Mean:       -0.16950
             -0.16950       -0.00000        0.00000
             -0.00000       -0.16950        0.00000
             -0.00000        0.00000       -0.16950

          Effective charges (d Force / dE) in cartesian axis with asr applied: 
           atom      1   Si Mean Z*:       -0.00000
      E*x (       -0.00000       -0.00000       -0.00000 )
      E*y (        0.00000       -0.00000        0.00000 )
      E*z (       -0.00000       -0.00000       -0.00000 )
           atom      2   Si Mean Z*:        0.00000
      E*x (        0.00000        0.00000        0.00000 )
      E*y (        0.00000        0.00000        0.00000 )
      E*z (        0.00000        0.00000        0.00000 )

          Effective charges (d P / du) in cartesian axis 

           atom      1   Si 
      Px  (       -0.08485        0.00000        0.00000 )
      Py  (        0.00000       -0.08485       -0.00000 )
      Pz  (        0.00000       -0.00000       -0.08485 )
           atom      2   Si 
      Px  (       -0.08485       -0.00000       -0.00000 )
      Py  (       -0.00000       -0.08485       -0.00000 )
      Pz  (       -0.00000       -0.00000       -0.08485 )

     Diagonalizing the dynamical matrix

     q = (    0.000000000   0.000000000   0.000000000 ) 

 **************************************************************************
     freq (    1) =      -0.610071 [THz] =     -20.349770 [cm-1]
     freq (    2) =      -0.610071 [THz] =     -20.349770 [cm-1]
     freq (    3) =      -0.610071 [THz] =     -20.349770 [cm-1]
     freq (    4) =      15.441507 [THz] =     515.073241 [cm-1]
     freq (    5) =      15.441507 [THz] =     515.073241 [cm-1]
     freq (    6) =      15.441507 [THz] =     515.073241 [cm-1]
 **************************************************************************

     Mode symmetry, O_h (m-3m)  point group:

     freq (   1-   3) =        -20.3  [cm-1]   --> T_1u G_15  G_4- I  
     freq (   4-   6) =        515.1  [cm-1]   --> T_2g G_25' G_5+ R  

     Calculation of q =   -0.1250000   0.1250000  -0.1250000
 
     Parallelization info
     --------------------
     sticks:   dense  smooth     PW     G-vecs:    dense   smooth      PW
     Min          71      71     22                 1405     1405     240
     Max          72      72     23                 1408     1408     243
     Sum         859     859    265                16865    16865    2891
 
     Using Slab Decomposition
 

     Title: 
     default                                                                    


     bravais-lattice index     =            2
     lattice parameter (alat)  =      10.2273  a.u.
     unit-cell volume          =     267.4379 (a.u.)^3
     number of atoms/cell      =            2
     number of atomic types    =            1
     number of electrons       =         8.00
     number of Kohn-Sham states=            4
     kinetic-energy cutoff     =      60.0000  Ry
     charge density cutoff     =     240.0000  Ry
     Exchange-correlation= PBESOL
                           (   1   4  10   8   0   0   0)

     celldm(1)=  10.227300  celldm(2)=   0.000000  celldm(3)=   0.000000
     celldm(4)=   0.000000  celldm(5)=   0.000000  celldm(6)=   0.000000

     crystal axes: (cart. coord. in units of alat)
               a(1) = (  -0.500000   0.000000   0.500000 )  
               a(2) = (   0.000000   0.500000   0.500000 )  
               a(3) = (  -0.500000   0.500000   0.000000 )  

     reciprocal axes: (cart. coord. in units 2 pi/alat)
               b(1) = ( -1.000000 -1.000000  1.000000 )  
               b(2) = (  1.000000  1.000000  1.000000 )  
               b(3) = ( -1.000000  1.000000 -1.000000 )  


     PseudoPot. # 1 for Si read from file:
     ../pseudo/Si.pbesol-n-rrkjus_psl.1.0.0.UPF
     MD5 check sum: c4212819de858c94c3a1644338846ac9
     Pseudo is Ultrasoft + core correction, Zval =  4.0
     Generated using "atomic" code by A. Dal Corso  v.6.0 svn rev. 13079
     Using radial grid of 1141 points,  6 beta functions with: 
                l(1) =   0
                l(2) =   0
                l(3) =   1
                l(4) =   1
                l(5) =   2
                l(6) =   2
     Q(r) pseudized with 0 coefficients 


     atomic species   valence    mass     pseudopotential
        Si             4.00    28.08550     Si( 1.00)

     48 Sym. Ops., with inversion, found



   Cartesian axes

     site n.     atom                  positions (alat units)
         1           Si  tau(   1) = (  -0.2500000   0.2500000   0.2500000  )
         2           Si  tau(   2) = (  -0.5000000   0.5000000   0.5000000  )

     number of k points=   120

     Number of k-points >= 100: set verbosity='high' to print them.

     Dense  grid:    16865 G-vectors     FFT dimensions: (  36,  36,  36)

     Estimated max dynamical RAM per process >       3.85 MB

     Estimated total dynamical RAM >      92.40 MB

     The potential is recalculated from file :
     ./out/_ph0/Si.save/charge-density

     Starting wfcs are    8 atomic wfcs

     Band Structure Calculation
     Davidson diagonalization with overlap

     ethr =  1.25E-10,  avg # of iterations = 13.3

     total cpu time spent up to now is        0.5 secs

     End of band structure calculation

     Number of k-points >= 100: set verbosity='high' to print the bands.

     highest occupied level (ev):     5.9696

     Writing config to output data dir ./out/_ph0/Si.save/

     default                                                                    

     bravais-lattice index     =            2
     lattice parameter (alat)  =      10.2273  a.u.
     unit-cell volume          =     267.4379 (a.u.)^3
     number of atoms/cell      =            2
     number of atomic types    =            1
     kinetic-energy cut-off    =      60.0000  Ry
     charge density cut-off    =     240.0000  Ry
     convergence threshold     =      1.0E-14
     beta                      =       0.7000
     number of iterations used =            4
     Exchange-correlation= PBESOL
                           (   1   4  10   8   0   0   0)


     celldm(1)=   10.22730  celldm(2)=    0.00000  celldm(3)=    0.00000
     celldm(4)=    0.00000  celldm(5)=    0.00000  celldm(6)=    0.00000

     crystal axes: (cart. coord. in units of alat)
               a(1) = ( -0.5000  0.0000  0.5000 )  
               a(2) = (  0.0000  0.5000  0.5000 )  
               a(3) = ( -0.5000  0.5000  0.0000 )  

     reciprocal axes: (cart. coord. in units 2 pi/alat)
               b(1) = ( -1.0000 -1.0000  1.0000 )  
               b(2) = (  1.0000  1.0000  1.0000 )  
               b(3) = ( -1.0000  1.0000 -1.0000 )  


     Atoms inside the unit cell: 

     Cartesian axes

     site n.  atom      mass           positions (alat units)
        1     Si  28.0855   tau(    1) = (   -0.25000    0.25000    0.25000  )
        2     Si  28.0855   tau(    2) = (   -0.50000    0.50000    0.50000  )

     Computing dynamical matrix for 
                    q = (  -0.1250000   0.1250000  -0.1250000 )
 
      6 Sym.Ops. (no q -> -q+G )


     G cutoff =  635.8776  (   1408 G-vectors)     FFT grid: ( 36, 36, 36)
     number of k points=   120

     PseudoPot. # 1 for Si read from file:
     ../pseudo/Si.pbesol-n-rrkjus_psl.1.0.0.UPF
     MD5 check sum: c4212819de858c94c3a1644338846ac9
     Pseudo is Ultrasoft + core correction, Zval =  4.0
     Generated using "atomic" code by A. Dal Corso  v.6.0 svn rev. 13079
     Using radial grid of 1141 points,  6 beta functions with: 
                l(1) =   0
                l(2) =   0
                l(3) =   1
                l(4) =   1
                l(5) =   2
                l(6) =   2
     Q(r) pseudized with 0 coefficients 


     Mode symmetry, C_3v (3m)   point group:


     Atomic displacements:
     There are    4 irreducible representations

     Representation     1      1 modes -  To be done

     Representation     2      1 modes -  To be done

     Representation     3      2 modes -  To be done

     Representation     4      2 modes -  To be done



     Alpha used in Ewald sum =   2.5000
     PHONON       :      5.52s CPU      9.21s WALL



     Representation #   1 mode #   1

     Self-consistent Calculation

      iter #   1 total cpu time :     9.4 secs   av.it.:   6.2
      thresh= 1.000E-02 alpha_mix =  0.700 |ddv_scf|^2 =  5.057E-03

      iter #   2 total cpu time :     9.6 secs   av.it.:   7.8
      thresh= 7.111E-03 alpha_mix =  0.700 |ddv_scf|^2 =  2.240E-01

      iter #   3 total cpu time :    10.0 secs   av.it.:   7.4
      thresh= 1.000E-02 alpha_mix =  0.700 |ddv_scf|^2 =  1.053E-06

      iter #   4 total cpu time :    10.2 secs   av.it.:   8.0
      thresh= 1.026E-04 alpha_mix =  0.700 |ddv_scf|^2 =  6.372E-09

      iter #   5 total cpu time :    10.5 secs   av.it.:   9.2
      thresh= 7.982E-06 alpha_mix =  0.700 |ddv_scf|^2 =  9.330E-09

      iter #   6 total cpu time :    10.7 secs   av.it.:   7.5
      thresh= 9.659E-06 alpha_mix =  0.700 |ddv_scf|^2 =  2.718E-08

      iter #   7 total cpu time :    10.9 secs   av.it.:   6.8
      thresh= 1.649E-05 alpha_mix =  0.700 |ddv_scf|^2 =  2.668E-10

      iter #   8 total cpu time :    11.4 secs   av.it.:   7.4
      thresh= 1.634E-06 alpha_mix =  0.700 |ddv_scf|^2 =  5.319E-12

      iter #   9 total cpu time :    11.8 secs   av.it.:   6.8
      thresh= 2.306E-07 alpha_mix =  0.700 |ddv_scf|^2 =  5.594E-13

      iter #  10 total cpu time :    12.0 secs   av.it.:   7.5
      thresh= 7.480E-08 alpha_mix =  0.700 |ddv_scf|^2 =  4.925E-14

      iter #  11 total cpu time :    12.2 secs   av.it.:   7.5
      thresh= 2.219E-08 alpha_mix =  0.700 |ddv_scf|^2 =  2.438E-15

     End of self-consistent calculation

     Convergence has been achieved 


     Representation #   2 mode #   2

     Self-consistent Calculation

      iter #   1 total cpu time :    12.6 secs   av.it.:   6.2
      thresh= 1.000E-02 alpha_mix =  0.700 |ddv_scf|^2 =  5.057E-03

      iter #   2 total cpu time :    12.8 secs   av.it.:   7.8
      thresh= 7.111E-03 alpha_mix =  0.700 |ddv_scf|^2 =  2.240E-01

      iter #   3 total cpu time :    13.0 secs   av.it.:   7.4
      thresh= 1.000E-02 alpha_mix =  0.700 |ddv_scf|^2 =  1.053E-06

      iter #   4 total cpu time :    13.3 secs   av.it.:   8.0
      thresh= 1.026E-04 alpha_mix =  0.700 |ddv_scf|^2 =  6.371E-09

      iter #   5 total cpu time :    13.6 secs   av.it.:   9.2
      thresh= 7.982E-06 alpha_mix =  0.700 |ddv_scf|^2 =  9.330E-09

      iter #   6 total cpu time :    13.8 secs   av.it.:   7.5
      thresh= 9.659E-06 alpha_mix =  0.700 |ddv_scf|^2 =  2.718E-08

      iter #   7 total cpu time :    14.0 secs   av.it.:   6.9
      thresh= 1.649E-05 alpha_mix =  0.700 |ddv_scf|^2 =  2.668E-10

      iter #   8 total cpu time :    14.4 secs   av.it.:   7.4
      thresh= 1.634E-06 alpha_mix =  0.700 |ddv_scf|^2 =  5.318E-12

      iter #   9 total cpu time :    14.7 secs   av.it.:   6.8
      thresh= 2.306E-07 alpha_mix =  0.700 |ddv_scf|^2 =  5.593E-13

      iter #  10 total cpu time :    15.0 secs   av.it.:   7.5
      thresh= 7.479E-08 alpha_mix =  0.700 |ddv_scf|^2 =  4.924E-14

      iter #  11 total cpu time :    15.1 secs   av.it.:   7.5
      thresh= 2.219E-08 alpha_mix =  0.700 |ddv_scf|^2 =  2.439E-15

     End of self-consistent calculation

     Convergence has been achieved 


     Representation #   3 modes #   3   4

     Self-consistent Calculation

      iter #   1 total cpu time :    15.7 secs   av.it.:   5.7
      thresh= 1.000E-02 alpha_mix =  0.700 |ddv_scf|^2 =  7.367E-08

      iter #   2 total cpu time :    16.2 secs   av.it.:  10.7
      thresh= 2.714E-05 alpha_mix =  0.700 |ddv_scf|^2 =  4.950E-09

      iter #   3 total cpu time :    16.7 secs   av.it.:  10.5
      thresh= 7.036E-06 alpha_mix =  0.700 |ddv_scf|^2 =  2.963E-10

      iter #   4 total cpu time :    17.2 secs   av.it.:  10.5
      thresh= 1.721E-06 alpha_mix =  0.700 |ddv_scf|^2 =  8.558E-13

      iter #   5 total cpu time :    17.6 secs   av.it.:  10.7
      thresh= 9.251E-08 alpha_mix =  0.700 |ddv_scf|^2 =  4.145E-14

      iter #   6 total cpu time :    18.1 secs   av.it.:  10.9
      thresh= 2.036E-08 alpha_mix =  0.700 |ddv_scf|^2 =  3.530E-16

     End of self-consistent calculation

     Convergence has been achieved 


     Representation #   4 modes #   5   6

     Self-consistent Calculation

      iter #   1 total cpu time :    18.6 secs   av.it.:   5.6
      thresh= 1.000E-02 alpha_mix =  0.700 |ddv_scf|^2 =  7.367E-08

      iter #   2 total cpu time :    19.1 secs   av.it.:  10.5
      thresh= 2.714E-05 alpha_mix =  0.700 |ddv_scf|^2 =  4.951E-09

      iter #   3 total cpu time :    19.6 secs   av.it.:  10.3
      thresh= 7.037E-06 alpha_mix =  0.700 |ddv_scf|^2 =  2.964E-10

      iter #   4 total cpu time :    20.0 secs   av.it.:  10.3
      thresh= 1.722E-06 alpha_mix =  0.700 |ddv_scf|^2 =  8.555E-13

      iter #   5 total cpu time :    20.5 secs   av.it.:  10.5
      thresh= 9.250E-08 alpha_mix =  0.700 |ddv_scf|^2 =  4.147E-14

      iter #   6 total cpu time :    21.0 secs   av.it.:  10.6
      thresh= 2.036E-08 alpha_mix =  0.700 |ddv_scf|^2 =  3.522E-16

     End of self-consistent calculation

     Convergence has been achieved 
 
     Number of q in the star =    8
     List of q in the star:
          1  -0.125000000   0.125000000  -0.125000000
          2   0.125000000  -0.125000000  -0.125000000
          3   0.125000000  -0.125000000   0.125000000
          4  -0.125000000   0.125000000   0.125000000
          5   0.125000000   0.125000000  -0.125000000
          6  -0.125000000  -0.125000000  -0.125000000
          7  -0.125000000  -0.125000000   0.125000000
          8   0.125000000   0.125000000   0.125000000

     Diagonalizing the dynamical matrix

     q = (   -0.125000000   0.125000000  -0.125000000 ) 

 **************************************************************************
     freq (    1) =       1.642042 [THz] =      54.772634 [cm-1]
     freq (    2) =       1.642042 [THz] =      54.772634 [cm-1]
     freq (    3) =       3.554879 [THz] =     118.577997 [cm-1]
     freq (    4) =      15.239693 [THz] =     508.341450 [cm-1]
     freq (    5) =      15.239693 [THz] =     508.341450 [cm-1]
     freq (    6) =      15.254300 [THz] =     508.828685 [cm-1]
 **************************************************************************

     Mode symmetry, C_3v (3m)   point group:

     freq (   1-   2) =         54.8  [cm-1]   --> E    L_3           
     freq (   3-   3) =        118.6  [cm-1]   --> A_1  L_1           
     freq (   4-   5) =        508.3  [cm-1]   --> E    L_3           
     freq (   6-   6) =        508.8  [cm-1]   --> A_1  L_1           

     Calculation of q =   -0.2500000   0.2500000  -0.2500000
 
     Parallelization info
     --------------------
     sticks:   dense  smooth     PW     G-vecs:    dense   smooth      PW
     Min          71      71     22                 1405     1405     247
     Max          72      72     23                 1408     1408     249
     Sum         859     859    271                16865    16865    2975
 
     Using Slab Decomposition
 

     Title: 
     default                                                                    


     bravais-lattice index     =            2
     lattice parameter (alat)  =      10.2273  a.u.
     unit-cell volume          =     267.4379 (a.u.)^3
     number of atoms/cell      =            2
     number of atomic types    =            1
     number of electrons       =         8.00
     number of Kohn-Sham states=            4
     kinetic-energy cutoff     =      60.0000  Ry
     charge density cutoff     =     240.0000  Ry
     Exchange-correlation= PBESOL
                           (   1   4  10   8   0   0   0)

     celldm(1)=  10.227300  celldm(2)=   0.000000  celldm(3)=   0.000000
     celldm(4)=   0.000000  celldm(5)=   0.000000  celldm(6)=   0.000000

     crystal axes: (cart. coord. in units of alat)
               a(1) = (  -0.500000   0.000000   0.500000 )  
               a(2) = (   0.000000   0.500000   0.500000 )  
               a(3) = (  -0.500000   0.500000   0.000000 )  

     reciprocal axes: (cart. coord. in units 2 pi/alat)
               b(1) = ( -1.000000 -1.000000  1.000000 )  
               b(2) = (  1.000000  1.000000  1.000000 )  
               b(3) = ( -1.000000  1.000000 -1.000000 )  


     PseudoPot. # 1 for Si read from file:
     ../pseudo/Si.pbesol-n-rrkjus_psl.1.0.0.UPF
     MD5 check sum: c4212819de858c94c3a1644338846ac9
     Pseudo is Ultrasoft + core correction, Zval =  4.0
     Generated using "atomic" code by A. Dal Corso  v.6.0 svn rev. 13079
     Using radial grid of 1141 points,  6 beta functions with: 
                l(1) =   0
                l(2) =   0
                l(3) =   1
                l(4) =   1
                l(5) =   2
                l(6) =   2
     Q(r) pseudized with 0 coefficients 


     atomic species   valence    mass     pseudopotential
        Si             4.00    28.08550     Si( 1.00)

     48 Sym. Ops., with inversion, found



   Cartesian axes

     site n.     atom                  positions (alat units)
         1           Si  tau(   1) = (  -0.2500000   0.2500000   0.2500000  )
         2           Si  tau(   2) = (  -0.5000000   0.5000000   0.5000000  )

     number of k points=   120

     Number of k-points >= 100: set verbosity='high' to print them.

     Dense  grid:    16865 G-vectors     FFT dimensions: (  36,  36,  36)

     Estimated max dynamical RAM per process >       3.86 MB

     Estimated total dynamical RAM >      92.65 MB

     The potential is recalculated from file :
     ./out/_ph0/Si.save/charge-density

     Starting wfcs are    8 atomic wfcs

     Band Structure Calculation
     Davidson diagonalization with overlap

     ethr =  1.25E-10,  avg # of iterations = 13.6

     total cpu time spent up to now is        1.2 secs

     End of band structure calculation

     Number of k-points >= 100: set verbosity='high' to print the bands.

     highest occupied level (ev):     5.9696

     Writing config to output data dir ./out/_ph0/Si.save/

     default                                                                    

     bravais-lattice index     =            2
     lattice parameter (alat)  =      10.2273  a.u.
     unit-cell volume          =     267.4379 (a.u.)^3
     number of atoms/cell      =            2
     number of atomic types    =            1
     kinetic-energy cut-off    =      60.0000  Ry
     charge density cut-off    =     240.0000  Ry
     convergence threshold     =      1.0E-14
     beta                      =       0.7000
     number of iterations used =            4
     Exchange-correlation= PBESOL
                           (   1   4  10   8   0   0   0)


     celldm(1)=   10.22730  celldm(2)=    0.00000  celldm(3)=    0.00000
     celldm(4)=    0.00000  celldm(5)=    0.00000  celldm(6)=    0.00000

     crystal axes: (cart. coord. in units of alat)
               a(1) = ( -0.5000  0.0000  0.5000 )  
               a(2) = (  0.0000  0.5000  0.5000 )  
               a(3) = ( -0.5000  0.5000  0.0000 )  

     reciprocal axes: (cart. coord. in units 2 pi/alat)
               b(1) = ( -1.0000 -1.0000  1.0000 )  
               b(2) = (  1.0000  1.0000  1.0000 )  
               b(3) = ( -1.0000  1.0000 -1.0000 )  


     Atoms inside the unit cell: 

     Cartesian axes

     site n.  atom      mass           positions (alat units)
        1     Si  28.0855   tau(    1) = (   -0.25000    0.25000    0.25000  )
        2     Si  28.0855   tau(    2) = (   -0.50000    0.50000    0.50000  )

     Computing dynamical matrix for 
                    q = (  -0.2500000   0.2500000  -0.2500000 )
 
      6 Sym.Ops. (no q -> -q+G )


     G cutoff =  635.8776  (   1408 G-vectors)     FFT grid: ( 36, 36, 36)
     number of k points=   120

     PseudoPot. # 1 for Si read from file:
     ../pseudo/Si.pbesol-n-rrkjus_psl.1.0.0.UPF
     MD5 check sum: c4212819de858c94c3a1644338846ac9
     Pseudo is Ultrasoft + core correction, Zval =  4.0
     Generated using "atomic" code by A. Dal Corso  v.6.0 svn rev. 13079
     Using radial grid of 1141 points,  6 beta functions with: 
                l(1) =   0
                l(2) =   0
                l(3) =   1
                l(4) =   1
                l(5) =   2
                l(6) =   2
     Q(r) pseudized with 0 coefficients 


     Mode symmetry, C_3v (3m)   point group:


     Atomic displacements:
     There are    4 irreducible representations

     Representation     1      1 modes -  To be done

     Representation     2      1 modes -  To be done

     Representation     3      2 modes -  To be done

     Representation     4      2 modes -  To be done



     Alpha used in Ewald sum =   2.5000
     PHONON       :     14.55s CPU     22.42s WALL



     Representation #   1 mode #   1

     Self-consistent Calculation

      iter #   1 total cpu time :    22.6 secs   av.it.:   6.1
      thresh= 1.000E-02 alpha_mix =  0.700 |ddv_scf|^2 =  4.565E-04

      iter #   2 total cpu time :    22.8 secs   av.it.:   8.5
      thresh= 2.137E-03 alpha_mix =  0.700 |ddv_scf|^2 =  7.211E-03

      iter #   3 total cpu time :    23.2 secs   av.it.:   6.9
      thresh= 8.492E-03 alpha_mix =  0.700 |ddv_scf|^2 =  2.742E-07

      iter #   4 total cpu time :    23.4 secs   av.it.:   9.1
      thresh= 5.236E-05 alpha_mix =  0.700 |ddv_scf|^2 =  1.864E-08

      iter #   5 total cpu time :    23.7 secs   av.it.:   9.2
      thresh= 1.365E-05 alpha_mix =  0.700 |ddv_scf|^2 =  5.435E-10

      iter #   6 total cpu time :    23.9 secs   av.it.:   9.2
      thresh= 2.331E-06 alpha_mix =  0.700 |ddv_scf|^2 =  1.206E-10

      iter #   7 total cpu time :    24.2 secs   av.it.:   8.3
      thresh= 1.098E-06 alpha_mix =  0.700 |ddv_scf|^2 =  1.461E-10

      iter #   8 total cpu time :    24.5 secs   av.it.:   7.8
      thresh= 1.209E-06 alpha_mix =  0.700 |ddv_scf|^2 =  5.651E-13

      iter #   9 total cpu time :    24.9 secs   av.it.:   8.7
      thresh= 7.517E-08 alpha_mix =  0.700 |ddv_scf|^2 =  4.150E-14

      iter #  10 total cpu time :    25.1 secs   av.it.:   8.9
      thresh= 2.037E-08 alpha_mix =  0.700 |ddv_scf|^2 =  4.415E-15

     End of self-consistent calculation

     Convergence has been achieved 


     Representation #   2 mode #   2

     Self-consistent Calculation

      iter #   1 total cpu time :    25.5 secs   av.it.:   6.1
      thresh= 1.000E-02 alpha_mix =  0.700 |ddv_scf|^2 =  4.565E-04

      iter #   2 total cpu time :    25.8 secs   av.it.:   8.5
      thresh= 2.137E-03 alpha_mix =  0.700 |ddv_scf|^2 =  7.211E-03

      iter #   3 total cpu time :    26.1 secs   av.it.:   6.9
      thresh= 8.492E-03 alpha_mix =  0.700 |ddv_scf|^2 =  2.742E-07

      iter #   4 total cpu time :    26.3 secs   av.it.:   9.1
      thresh= 5.236E-05 alpha_mix =  0.700 |ddv_scf|^2 =  1.864E-08

      iter #   5 total cpu time :    26.6 secs   av.it.:   9.2
      thresh= 1.365E-05 alpha_mix =  0.700 |ddv_scf|^2 =  5.435E-10

      iter #   6 total cpu time :    26.8 secs   av.it.:   9.2
      thresh= 2.331E-06 alpha_mix =  0.700 |ddv_scf|^2 =  1.204E-10

      iter #   7 total cpu time :    27.1 secs   av.it.:   8.3
      thresh= 1.097E-06 alpha_mix =  0.700 |ddv_scf|^2 =  1.462E-10

      iter #   8 total cpu time :    27.4 secs   av.it.:   7.8
      thresh= 1.209E-06 alpha_mix =  0.700 |ddv_scf|^2 =  5.650E-13

      iter #   9 total cpu time :    27.8 secs   av.it.:   8.7
      thresh= 7.517E-08 alpha_mix =  0.700 |ddv_scf|^2 =  4.149E-14

      iter #  10 total cpu time :    28.0 secs   av.it.:   8.9
      thresh= 2.037E-08 alpha_mix =  0.700 |ddv_scf|^2 =  4.415E-15

     End of self-consistent calculation

     Convergence has been achieved 


     Representation #   3 modes #   3   4

     Self-consistent Calculation

      iter #   1 total cpu time :    28.6 secs   av.it.:   5.7
      thresh= 1.000E-02 alpha_mix =  0.700 |ddv_scf|^2 =  8.624E-08

      iter #   2 total cpu time :    29.1 secs   av.it.:  10.8
      thresh= 2.937E-05 alpha_mix =  0.700 |ddv_scf|^2 =  6.322E-09

      iter #   3 total cpu time :    29.6 secs   av.it.:  10.7
      thresh= 7.951E-06 alpha_mix =  0.700 |ddv_scf|^2 =  4.346E-10

      iter #   4 total cpu time :    30.1 secs   av.it.:  10.5
      thresh= 2.085E-06 alpha_mix =  0.700 |ddv_scf|^2 =  8.598E-13

      iter #   5 total cpu time :    30.8 secs   av.it.:  10.8
      thresh= 9.272E-08 alpha_mix =  0.700 |ddv_scf|^2 =  4.162E-14

      iter #   6 total cpu time :    31.2 secs   av.it.:  10.9
      thresh= 2.040E-08 alpha_mix =  0.700 |ddv_scf|^2 =  3.863E-16

     End of self-consistent calculation

     Convergence has been achieved 


     Representation #   4 modes #   5   6

     Self-consistent Calculation

      iter #   1 total cpu time :    31.7 secs   av.it.:   5.5
      thresh= 1.000E-02 alpha_mix =  0.700 |ddv_scf|^2 =  8.623E-08

      iter #   2 total cpu time :    32.2 secs   av.it.:  10.5
      thresh= 2.937E-05 alpha_mix =  0.700 |ddv_scf|^2 =  6.320E-09

      iter #   3 total cpu time :    32.7 secs   av.it.:  10.3
      thresh= 7.950E-06 alpha_mix =  0.700 |ddv_scf|^2 =  4.345E-10

      iter #   4 total cpu time :    33.2 secs   av.it.:  10.4
      thresh= 2.085E-06 alpha_mix =  0.700 |ddv_scf|^2 =  8.616E-13

      iter #   5 total cpu time :    33.7 secs   av.it.:  10.7
      thresh= 9.282E-08 alpha_mix =  0.700 |ddv_scf|^2 =  4.170E-14

      iter #   6 total cpu time :    34.1 secs   av.it.:  10.7
      thresh= 2.042E-08 alpha_mix =  0.700 |ddv_scf|^2 =  3.863E-16

     End of self-consistent calculation

     Convergence has been achieved 
 
     Number of q in the star =    8
     List of q in the star:
          1  -0.250000000   0.250000000  -0.250000000
          2   0.250000000  -0.250000000  -0.250000000
          3   0.250000000  -0.250000000   0.250000000
          4  -0.250000000   0.250000000   0.250000000
          5   0.250000000   0.250000000  -0.250000000
          6  -0.250000000  -0.250000000  -0.250000000
          7  -0.250000000  -0.250000000   0.250000000
          8   0.250000000   0.250000000   0.250000000

     Diagonalizing the dynamical matrix

     q = (   -0.250000000   0.250000000  -0.250000000 ) 

 **************************************************************************
     freq (    1) =       2.647218 [THz] =      88.301689 [cm-1]
     freq (    2) =       2.647218 [THz] =      88.301689 [cm-1]
     freq (    3) =       6.856513 [THz] =     228.708670 [cm-1]
     freq (    4) =      14.573743 [THz] =     486.127731 [cm-1]
     freq (    5) =      14.926358 [THz] =     497.889694 [cm-1]
     freq (    6) =      14.926358 [THz] =     497.889694 [cm-1]
 **************************************************************************

     Mode symmetry, C_3v (3m)   point group:

     freq (   1-   2) =         88.3  [cm-1]   --> E    L_3           
     freq (   3-   3) =        228.7  [cm-1]   --> A_1  L_1           
     freq (   4-   4) =        486.1  [cm-1]   --> A_1  L_1           
     freq (   5-   6) =        497.9  [cm-1]   --> E    L_3           

     Calculation of q =   -0.3750000   0.3750000  -0.3750000
 
     Parallelization info
     --------------------
     sticks:   dense  smooth     PW     G-vecs:    dense   smooth      PW
     Min          71      71     23                 1405     1405     260
     Max          72      72     24                 1408     1408     263
     Sum         859     859    283                16865    16865    3143
 
     Using Slab Decomposition
 

     Title: 
     default                                                                    


     bravais-lattice index     =            2
     lattice parameter (alat)  =      10.2273  a.u.
     unit-cell volume          =     267.4379 (a.u.)^3
     number of atoms/cell      =            2
     number of atomic types    =            1
     number of electrons       =         8.00
     number of Kohn-Sham states=            4
     kinetic-energy cutoff     =      60.0000  Ry
     charge density cutoff     =     240.0000  Ry
     Exchange-correlation= PBESOL
                           (   1   4  10   8   0   0   0)

     celldm(1)=  10.227300  celldm(2)=   0.000000  celldm(3)=   0.000000
     celldm(4)=   0.000000  celldm(5)=   0.000000  celldm(6)=   0.000000

     crystal axes: (cart. coord. in units of alat)
               a(1) = (  -0.500000   0.000000   0.500000 )  
               a(2) = (   0.000000   0.500000   0.500000 )  
               a(3) = (  -0.500000   0.500000   0.000000 )  

     reciprocal axes: (cart. coord. in units 2 pi/alat)
               b(1) = ( -1.000000 -1.000000  1.000000 )  
               b(2) = (  1.000000  1.000000  1.000000 )  
               b(3) = ( -1.000000  1.000000 -1.000000 )  


     PseudoPot. # 1 for Si read from file:
     ../pseudo/Si.pbesol-n-rrkjus_psl.1.0.0.UPF
     MD5 check sum: c4212819de858c94c3a1644338846ac9
     Pseudo is Ultrasoft + core correction, Zval =  4.0
     Generated using "atomic" code by A. Dal Corso  v.6.0 svn rev. 13079
     Using radial grid of 1141 points,  6 beta functions with: 
                l(1) =   0
                l(2) =   0
                l(3) =   1
                l(4) =   1
                l(5) =   2
                l(6) =   2
     Q(r) pseudized with 0 coefficients 


     atomic species   valence    mass     pseudopotential
        Si             4.00    28.08550     Si( 1.00)

     48 Sym. Ops., with inversion, found



   Cartesian axes

     site n.     atom                  positions (alat units)
         1           Si  tau(   1) = (  -0.2500000   0.2500000   0.2500000  )
         2           Si  tau(   2) = (  -0.5000000   0.5000000   0.5000000  )

     number of k points=   120

     Number of k-points >= 100: set verbosity='high' to print them.

     Dense  grid:    16865 G-vectors     FFT dimensions: (  36,  36,  36)

     Estimated max dynamical RAM per process >       3.87 MB

     Estimated total dynamical RAM >      92.92 MB

     The potential is recalculated from file :
     ./out/_ph0/Si.save/charge-density

     Starting wfcs are    8 atomic wfcs

     Band Structure Calculation
     Davidson diagonalization with overlap

     ethr =  1.25E-10,  avg # of iterations = 13.3

     total cpu time spent up to now is        1.8 secs

     End of band structure calculation

     Number of k-points >= 100: set verbosity='high' to print the bands.

     highest occupied level (ev):     5.9696

     Writing config to output data dir ./out/_ph0/Si.save/

     default                                                                    

     bravais-lattice index     =            2
     lattice parameter (alat)  =      10.2273  a.u.
     unit-cell volume          =     267.4379 (a.u.)^3
     number of atoms/cell      =            2
     number of atomic types    =            1
     kinetic-energy cut-off    =      60.0000  Ry
     charge density cut-off    =     240.0000  Ry
     convergence threshold     =      1.0E-14
     beta                      =       0.7000
     number of iterations used =            4
     Exchange-correlation= PBESOL
                           (   1   4  10   8   0   0   0)


     celldm(1)=   10.22730  celldm(2)=    0.00000  celldm(3)=    0.00000
     celldm(4)=    0.00000  celldm(5)=    0.00000  celldm(6)=    0.00000

     crystal axes: (cart. coord. in units of alat)
               a(1) = ( -0.5000  0.0000  0.5000 )  
               a(2) = (  0.0000  0.5000  0.5000 )  
               a(3) = ( -0.5000  0.5000  0.0000 )  

     reciprocal axes: (cart. coord. in units 2 pi/alat)
               b(1) = ( -1.0000 -1.0000  1.0000 )  
               b(2) = (  1.0000  1.0000  1.0000 )  
               b(3) = ( -1.0000  1.0000 -1.0000 )  


     Atoms inside the unit cell: 

     Cartesian axes

     site n.  atom      mass           positions (alat units)
        1     Si  28.0855   tau(    1) = (   -0.25000    0.25000    0.25000  )
        2     Si  28.0855   tau(    2) = (   -0.50000    0.50000    0.50000  )

     Computing dynamical matrix for 
                    q = (  -0.3750000   0.3750000  -0.3750000 )
 
      6 Sym.Ops. (no q -> -q+G )


     G cutoff =  635.8776  (   1408 G-vectors)     FFT grid: ( 36, 36, 36)
     number of k points=   120

     PseudoPot. # 1 for Si read from file:
     ../pseudo/Si.pbesol-n-rrkjus_psl.1.0.0.UPF
     MD5 check sum: c4212819de858c94c3a1644338846ac9
     Pseudo is Ultrasoft + core correction, Zval =  4.0
     Generated using "atomic" code by A. Dal Corso  v.6.0 svn rev. 13079
     Using radial grid of 1141 points,  6 beta functions with: 
                l(1) =   0
                l(2) =   0
                l(3) =   1
                l(4) =   1
                l(5) =   2
                l(6) =   2
     Q(r) pseudized with 0 coefficients 


     Mode symmetry, C_3v (3m)   point group:


     Atomic displacements:
     There are    4 irreducible representations

     Representation     1      1 modes -  To be done

     Representation     2      1 modes -  To be done

     Representation     3      2 modes -  To be done

     Representation     4      2 modes -  To be done



     Alpha used in Ewald sum =   2.5000
     PHONON       :     23.27s CPU     35.55s WALL



     Representation #   1 mode #   1

     Self-consistent Calculation

      iter #   1 total cpu time :    35.7 secs   av.it.:   6.1
      thresh= 1.000E-02 alpha_mix =  0.700 |ddv_scf|^2 =  7.736E-05

      iter #   2 total cpu time :    36.0 secs   av.it.:   9.1
      thresh= 8.795E-04 alpha_mix =  0.700 |ddv_scf|^2 =  4.401E-04

      iter #   3 total cpu time :    36.3 secs   av.it.:   7.7
      thresh= 2.098E-03 alpha_mix =  0.700 |ddv_scf|^2 =  2.198E-07

      iter #   4 total cpu time :    36.6 secs   av.it.:   9.0
      thresh= 4.688E-05 alpha_mix =  0.700 |ddv_scf|^2 =  5.750E-09

      iter #   5 total cpu time :    36.8 secs   av.it.:   9.2
      thresh= 7.583E-06 alpha_mix =  0.700 |ddv_scf|^2 =  1.325E-10

      iter #   6 total cpu time :    37.1 secs   av.it.:   9.7
      thresh= 1.151E-06 alpha_mix =  0.700 |ddv_scf|^2 =  5.979E-12

      iter #   7 total cpu time :    37.4 secs   av.it.:   9.8
      thresh= 2.445E-07 alpha_mix =  0.700 |ddv_scf|^2 =  3.285E-12

      iter #   8 total cpu time :    37.9 secs   av.it.:   8.5
      thresh= 1.813E-07 alpha_mix =  0.700 |ddv_scf|^2 =  1.621E-12

      iter #   9 total cpu time :    38.4 secs   av.it.:   8.6
      thresh= 1.273E-07 alpha_mix =  0.700 |ddv_scf|^2 =  6.543E-13

      iter #  10 total cpu time :    38.7 secs   av.it.:   8.4
      thresh= 8.089E-08 alpha_mix =  0.700 |ddv_scf|^2 =  5.906E-15

     End of self-consistent calculation

     Convergence has been achieved 


     Representation #   2 mode #   2

     Self-consistent Calculation

      iter #   1 total cpu time :    39.0 secs   av.it.:   6.1
      thresh= 1.000E-02 alpha_mix =  0.700 |ddv_scf|^2 =  7.736E-05

      iter #   2 total cpu time :    39.3 secs   av.it.:   9.1
      thresh= 8.795E-04 alpha_mix =  0.700 |ddv_scf|^2 =  4.401E-04

      iter #   3 total cpu time :    39.5 secs   av.it.:   7.7
      thresh= 2.098E-03 alpha_mix =  0.700 |ddv_scf|^2 =  2.198E-07

      iter #   4 total cpu time :    39.8 secs   av.it.:   9.0
      thresh= 4.688E-05 alpha_mix =  0.700 |ddv_scf|^2 =  5.750E-09

      iter #   5 total cpu time :    40.0 secs   av.it.:   9.2
      thresh= 7.583E-06 alpha_mix =  0.700 |ddv_scf|^2 =  1.325E-10

      iter #   6 total cpu time :    40.3 secs   av.it.:   9.7
      thresh= 1.151E-06 alpha_mix =  0.700 |ddv_scf|^2 =  5.977E-12

      iter #   7 total cpu time :    40.5 secs   av.it.:   9.8
      thresh= 2.445E-07 alpha_mix =  0.700 |ddv_scf|^2 =  3.279E-12

      iter #   8 total cpu time :    40.9 secs   av.it.:   8.6
      thresh= 1.811E-07 alpha_mix =  0.700 |ddv_scf|^2 =  1.622E-12

      iter #   9 total cpu time :    41.4 secs   av.it.:   8.6
      thresh= 1.274E-07 alpha_mix =  0.700 |ddv_scf|^2 =  6.536E-13

      iter #  10 total cpu time :    41.6 secs   av.it.:   8.4
      thresh= 8.084E-08 alpha_mix =  0.700 |ddv_scf|^2 =  5.897E-15

     End of self-consistent calculation

     Convergence has been achieved 


     Representation #   3 modes #   3   4

     Self-consistent Calculation

      iter #   1 total cpu time :    42.4 secs   av.it.:   5.7
      thresh= 1.000E-02 alpha_mix =  0.700 |ddv_scf|^2 =  9.750E-08

      iter #   2 total cpu time :    43.0 secs   av.it.:  10.7
      thresh= 3.123E-05 alpha_mix =  0.700 |ddv_scf|^2 =  7.756E-09

      iter #   3 total cpu time :    43.6 secs   av.it.:  10.6
      thresh= 8.807E-06 alpha_mix =  0.700 |ddv_scf|^2 =  5.196E-10

      iter #   4 total cpu time :    44.1 secs   av.it.:  10.4
      thresh= 2.279E-06 alpha_mix =  0.700 |ddv_scf|^2 =  8.348E-13

      iter #   5 total cpu time :    44.6 secs   av.it.:  10.8
      thresh= 9.137E-08 alpha_mix =  0.700 |ddv_scf|^2 =  4.135E-14

      iter #   6 total cpu time :    45.0 secs   av.it.:  10.9
      thresh= 2.034E-08 alpha_mix =  0.700 |ddv_scf|^2 =  4.689E-16

     End of self-consistent calculation

     Convergence has been achieved 


     Representation #   4 modes #   5   6

     Self-consistent Calculation

      iter #   1 total cpu time :    45.8 secs   av.it.:   5.6
      thresh= 1.000E-02 alpha_mix =  0.700 |ddv_scf|^2 =  9.752E-08

      iter #   2 total cpu time :    46.3 secs   av.it.:  10.6
      thresh= 3.123E-05 alpha_mix =  0.700 |ddv_scf|^2 =  7.765E-09

      iter #   3 total cpu time :    46.8 secs   av.it.:  10.4
      thresh= 8.812E-06 alpha_mix =  0.700 |ddv_scf|^2 =  5.200E-10

      iter #   4 total cpu time :    47.3 secs   av.it.:  10.3
      thresh= 2.280E-06 alpha_mix =  0.700 |ddv_scf|^2 =  8.323E-13

      iter #   5 total cpu time :    47.8 secs   av.it.:  10.6
      thresh= 9.123E-08 alpha_mix =  0.700 |ddv_scf|^2 =  4.136E-14

      iter #   6 total cpu time :    48.2 secs   av.it.:  10.6
      thresh= 2.034E-08 alpha_mix =  0.700 |ddv_scf|^2 =  4.674E-16

     End of self-consistent calculation

     Convergence has been achieved 
 
     Number of q in the star =    8
     List of q in the star:
          1  -0.375000000   0.375000000  -0.375000000
          2   0.375000000  -0.375000000  -0.375000000
          3   0.375000000  -0.375000000   0.375000000
          4  -0.375000000   0.375000000   0.375000000
          5   0.375000000   0.375000000  -0.375000000
          6  -0.375000000  -0.375000000  -0.375000000
          7  -0.375000000  -0.375000000   0.375000000
          8   0.375000000   0.375000000   0.375000000

     Diagonalizing the dynamical matrix

     q = (   -0.375000000   0.375000000  -0.375000000 ) 

 **************************************************************************
     freq (    1) =       2.933044 [THz] =      97.835801 [cm-1]
     freq (    2) =       2.933044 [THz] =      97.835801 [cm-1]
     freq (    3) =       9.538310 [THz] =     318.163775 [cm-1]
     freq (    4) =      13.512406 [THz] =     450.725345 [cm-1]
     freq (    5) =      14.800193 [THz] =     493.681287 [cm-1]
     freq (    6) =      14.800193 [THz] =     493.681287 [cm-1]
 **************************************************************************

     Mode symmetry, C_3v (3m)   point group:

     freq (   1-   2) =         97.8  [cm-1]   --> E    L_3           
     freq (   3-   3) =        318.2  [cm-1]   --> A_1  L_1           
     freq (   4-   4) =        450.7  [cm-1]   --> A_1  L_1           
     freq (   5-   6) =        493.7  [cm-1]   --> E    L_3           

     Calculation of q =    0.5000000  -0.5000000   0.5000000
 
     Parallelization info
     --------------------
     sticks:   dense  smooth     PW     G-vecs:    dense   smooth      PW
     Min          71      71     24                 1405     1405     273
     Max          72      72     25                 1408     1408     275
     Sum         859     859    295                16865    16865    3287
 
     Using Slab Decomposition
 

     Title: 
     default                                                                    


     bravais-lattice index     =            2
     lattice parameter (alat)  =      10.2273  a.u.
     unit-cell volume          =     267.4379 (a.u.)^3
     number of atoms/cell      =            2
     number of atomic types    =            1
     number of electrons       =         8.00
     number of Kohn-Sham states=            4
     kinetic-energy cutoff     =      60.0000  Ry
     charge density cutoff     =     240.0000  Ry
     Exchange-correlation= PBESOL
                           (   1   4  10   8   0   0   0)

     celldm(1)=  10.227300  celldm(2)=   0.000000  celldm(3)=   0.000000
     celldm(4)=   0.000000  celldm(5)=   0.000000  celldm(6)=   0.000000

     crystal axes: (cart. coord. in units of alat)
               a(1) = (  -0.500000   0.000000   0.500000 )  
               a(2) = (   0.000000   0.500000   0.500000 )  
               a(3) = (  -0.500000   0.500000   0.000000 )  

     reciprocal axes: (cart. coord. in units 2 pi/alat)
               b(1) = ( -1.000000 -1.000000  1.000000 )  
               b(2) = (  1.000000  1.000000  1.000000 )  
               b(3) = ( -1.000000  1.000000 -1.000000 )  


     PseudoPot. # 1 for Si read from file:
     ../pseudo/Si.pbesol-n-rrkjus_psl.1.0.0.UPF
     MD5 check sum: c4212819de858c94c3a1644338846ac9
     Pseudo is Ultrasoft + core correction, Zval =  4.0
     Generated using "atomic" code by A. Dal Corso  v.6.0 svn rev. 13079
     Using radial grid of 1141 points,  6 beta functions with: 
                l(1) =   0
                l(2) =   0
                l(3) =   1
                l(4) =   1
                l(5) =   2
                l(6) =   2
     Q(r) pseudized with 0 coefficients 


     atomic species   valence    mass     pseudopotential
        Si             4.00    28.08550     Si( 1.00)

     48 Sym. Ops., with inversion, found



   Cartesian axes

     site n.     atom                  positions (alat units)
         1           Si  tau(   1) = (  -0.2500000   0.2500000   0.2500000  )
         2           Si  tau(   2) = (  -0.5000000   0.5000000   0.5000000  )

     number of k points=    60
                       cart. coord. in units 2pi/alat
        k(    1) = (  -0.1250000   0.1250000   0.1250000), wk =   0.0468750
        k(    2) = (   0.3750000  -0.3750000   0.6250000), wk =   0.0000000
        k(    3) = (  -0.3750000   0.3750000  -0.1250000), wk =   0.0468750
        k(    4) = (   0.1250000  -0.1250000   0.3750000), wk =   0.0000000
        k(    5) = (   0.3750000  -0.3750000   0.6250000), wk =   0.0468750
        k(    6) = (   0.8750000  -0.8750000   1.1250000), wk =   0.0000000
        k(    7) = (   0.1250000  -0.1250000   0.3750000), wk =   0.0468750
        k(    8) = (   0.6250000  -0.6250000   0.8750000), wk =   0.0000000
        k(    9) = (  -0.1250000   0.6250000   0.1250000), wk =   0.0937500
        k(   10) = (   0.3750000   0.1250000   0.6250000), wk =   0.0000000
        k(   11) = (   0.6250000  -0.1250000   0.8750000), wk =   0.0937500
        k(   12) = (   1.1250000  -0.6250000   1.3750000), wk =   0.0000000
        k(   13) = (   0.3750000   0.1250000   0.6250000), wk =   0.0937500
        k(   14) = (   0.8750000  -0.3750000   1.1250000), wk =   0.0000000
        k(   15) = (  -0.1250000  -0.8750000   0.1250000), wk =   0.0937500
        k(   16) = (   0.3750000  -1.3750000   0.6250000), wk =   0.0000000
        k(   17) = (  -0.3750000   0.3750000   0.3750000), wk =   0.0468750
        k(   18) = (   0.1250000  -0.1250000   0.8750000), wk =   0.0000000
        k(   19) = (   0.3750000  -0.3750000   1.1250000), wk =   0.0468750
        k(   20) = (   0.8750000  -0.8750000   1.6250000), wk =   0.0000000
        k(   21) = (   0.1250000  -0.1250000   0.1250000), wk =   0.0156250
        k(   22) = (   0.6250000  -0.6250000   0.6250000), wk =   0.0000000
        k(   23) = (  -0.1250000  -0.3750000  -0.3750000), wk =   0.0937500
        k(   24) = (   0.3750000  -0.8750000   0.1250000), wk =   0.0000000
        k(   25) = (  -0.1250000  -0.3750000   0.3750000), wk =   0.0468750
        k(   26) = (   0.3750000  -0.8750000   0.8750000), wk =   0.0000000
        k(   27) = (   0.6250000   0.3750000   0.3750000), wk =   0.0937500
        k(   28) = (   1.1250000  -0.1250000   0.8750000), wk =   0.0000000
        k(   29) = (   0.6250000   0.3750000  -0.3750000), wk =   0.0468750
        k(   30) = (   1.1250000  -0.1250000   0.1250000), wk =   0.0000000
        k(   31) = (   0.3750000   0.1250000   0.1250000), wk =   0.0937500
        k(   32) = (   0.8750000  -0.3750000   0.6250000), wk =   0.0000000
        k(   33) = (   0.3750000   0.1250000  -0.1250000), wk =   0.0468750
        k(   34) = (   0.8750000  -0.3750000   0.3750000), wk =   0.0000000
        k(   35) = (  -0.1250000  -0.6250000  -0.1250000), wk =   0.0468750
        k(   36) = (   0.3750000  -1.1250000   0.3750000), wk =   0.0000000
        k(   37) = (   0.1250000  -0.6250000   0.1250000), wk =   0.0468750
        k(   38) = (   0.6250000  -1.1250000   0.6250000), wk =   0.0000000
        k(   39) = (   0.8750000   0.1250000   0.6250000), wk =   0.0937500
        k(   40) = (   1.3750000  -0.3750000   1.1250000), wk =   0.0000000
        k(   41) = (  -0.8750000   0.1250000   0.6250000), wk =   0.0937500
        k(   42) = (  -0.3750000  -0.3750000   1.1250000), wk =   0.0000000
        k(   43) = (   0.8750000   0.1250000  -0.6250000), wk =   0.0937500
        k(   44) = (   1.3750000  -0.3750000  -0.1250000), wk =   0.0000000
        k(   45) = (   0.6250000  -0.1250000   0.3750000), wk =   0.0937500
        k(   46) = (   1.1250000  -0.6250000   0.8750000), wk =   0.0000000
        k(   47) = (  -0.6250000  -0.1250000   0.3750000), wk =   0.0937500
        k(   48) = (  -0.1250000  -0.6250000   0.8750000), wk =   0.0000000
        k(   49) = (   0.6250000  -0.1250000  -0.3750000), wk =   0.0937500
        k(   50) = (   1.1250000  -0.6250000   0.1250000), wk =   0.0000000
        k(   51) = (  -0.1250000   0.8750000  -0.1250000), wk =   0.0468750
        k(   52) = (   0.3750000   0.3750000   0.3750000), wk =   0.0000000
        k(   53) = (   0.1250000   0.8750000   0.1250000), wk =   0.0468750
        k(   54) = (   0.6250000   0.3750000   0.6250000), wk =   0.0000000
        k(   55) = (   0.3750000  -0.3750000   0.3750000), wk =   0.0156250
        k(   56) = (   0.8750000  -0.8750000   0.8750000), wk =   0.0000000
        k(   57) = (   1.1250000   0.3750000   0.3750000), wk =   0.0937500
        k(   58) = (   1.6250000  -0.1250000   0.8750000), wk =   0.0000000
        k(   59) = (   1.1250000   0.3750000  -0.3750000), wk =   0.0468750
        k(   60) = (   1.6250000  -0.1250000   0.1250000), wk =   0.0000000

     Dense  grid:    16865 G-vectors     FFT dimensions: (  36,  36,  36)

     Estimated max dynamical RAM per process >       3.88 MB

     Estimated total dynamical RAM >      93.17 MB

     The potential is recalculated from file :
     ./out/_ph0/Si.save/charge-density

     Starting wfcs are    8 atomic wfcs

     Band Structure Calculation
     Davidson diagonalization with overlap

     ethr =  1.25E-10,  avg # of iterations = 13.6

     total cpu time spent up to now is        2.3 secs

     End of band structure calculation

          k =-0.1250 0.1250 0.1250 (  2094 PWs)   bands (ev):

    -5.5888   4.6479   5.9696   5.9696

          k = 0.3750-0.3750 0.6250 (  2094 PWs)   bands (ev):

    -3.3359  -0.5664   3.9452   4.6776

          k =-0.3750 0.3750-0.1250 (  2094 PWs)   bands (ev):

    -4.5286   1.5948   3.9040   5.4824

          k = 0.1250-0.1250 0.3750 (  2089 PWs)   bands (ev):

    -5.0446   3.0160   4.9184   4.9994

          k = 0.3750-0.3750 0.6250 (  2094 PWs)   bands (ev):

    -3.3359  -0.5664   3.9452   4.6776

          k = 0.8750-0.8750 1.1250 (  2094 PWs)   bands (ev):

    -5.5888   4.6479   5.9696   5.9696

          k = 0.1250-0.1250 0.3750 (  2089 PWs)   bands (ev):

    -5.0446   3.0160   4.9184   4.9994

          k = 0.6250-0.6250 0.8750 (  2094 PWs)   bands (ev):

    -4.5286   1.5948   3.9040   5.4824

          k =-0.1250 0.6250 0.1250 (  2095 PWs)   bands (ev):

    -3.9808   1.3035   3.5348   4.0159

          k = 0.3750 0.1250 0.6250 (  2095 PWs)   bands (ev):

    -3.5461   0.3773   2.8733   4.2942

          k = 0.6250-0.1250 0.8750 (  2115 PWs)   bands (ev):

    -2.2753  -0.7056   2.1056   3.2350

          k = 1.1250-0.6250 1.3750 (  2094 PWs)   bands (ev):

    -4.5286   1.5948   3.9040   5.4824

          k = 0.3750 0.1250 0.6250 (  2095 PWs)   bands (ev):

    -3.5461   0.3773   2.8733   4.2942

          k = 0.8750-0.3750 1.1250 (  2095 PWs)   bands (ev):

    -3.9808   1.3035   3.5348   4.0159

          k =-0.1250-0.8750 0.1250 (  2101 PWs)   bands (ev):

    -2.4609  -0.5991   2.7496   3.5352

          k = 0.3750-1.3750 0.6250 (  2094 PWs)   bands (ev):

    -3.3359  -0.5664   3.9452   4.6776

          k =-0.3750 0.3750 0.3750 (  2099 PWs)   bands (ev):

    -4.0765   0.2450   5.1639   5.1639

          k = 0.1250-0.1250 0.8750 (  2101 PWs)   bands (ev):

    -2.4609  -0.5991   2.7496   3.5352

          k = 0.3750-0.3750 1.1250 (  2102 PWs)   bands (ev):

    -2.8260  -0.4324   2.1830   4.3463

          k = 0.8750-0.8750 1.6250 (  2095 PWs)   bands (ev):

    -3.9808   1.3035   3.5348   4.0159

          k = 0.1250-0.1250 0.1250 (  2094 PWs)   bands (ev):

    -5.5888   4.6479   5.9696   5.9696

          k = 0.6250-0.6250 0.6250 (  2099 PWs)   bands (ev):

    -4.0765   0.2450   5.1639   5.1639

          k =-0.1250-0.3750-0.3750 (  2094 PWs)   bands (ev):

    -4.5286   1.5948   3.9040   5.4824

          k = 0.3750-0.8750 0.1250 (  2115 PWs)   bands (ev):

    -2.2753  -0.7056   2.1056   3.2350

          k =-0.1250-0.3750 0.3750 (  2094 PWs)   bands (ev):

    -4.5286   1.5948   3.9040   5.4824

          k = 0.3750-0.8750 0.8750 (  2095 PWs)   bands (ev):

    -3.9808   1.3035   3.5348   4.0159

          k = 0.6250 0.3750 0.3750 (  2094 PWs)   bands (ev):

    -3.3359  -0.5664   3.9452   4.6776

[...]
 q=   0.37500000 -0.37500000 -0.12500000
  reading force constants from file Si.dyn12
  nqs=           12
 q=   0.25000000  0.00000000  0.25000000
 q=  -0.25000000  0.00000000  0.25000000
 q=  -0.25000000  0.00000000 -0.25000000
 q=   0.00000000  0.25000000 -0.25000000
 q=  -0.25000000  0.25000000  0.00000000
 q=   0.25000000  0.00000000 -0.25000000
 q=   0.00000000  0.25000000  0.25000000
 q=   0.00000000 -0.25000000 -0.25000000
 q=   0.25000000  0.25000000  0.00000000
 q=  -0.25000000 -0.25000000  0.00000000
 q=   0.00000000 -0.25000000  0.25000000
 q=   0.25000000 -0.25000000  0.00000000
  reading force constants from file Si.dyn13
  nqs=            6
 q=   0.00000000  0.50000000  0.00000000
 q=   0.00000000 -0.50000000  0.00000000
 q=   0.50000000  0.00000000  0.00000000
 q=   0.00000000  0.00000000  0.50000000
 q=   0.00000000  0.00000000 -0.50000000
 q=  -0.50000000  0.00000000  0.00000000
  reading force constants from file Si.dyn14
  nqs=           24
 q=  -0.12500000  0.62500000 -0.12500000
 q=   0.12500000  0.62500000 -0.12500000
 q=   0.12500000  0.62500000  0.12500000
 q=  -0.12500000  0.62500000  0.12500000
 q=   0.12500000 -0.62500000  0.12500000
 q=   0.62500000 -0.12500000  0.12500000
 q=   0.12500000 -0.12500000  0.62500000
 q=  -0.12500000 -0.62500000 -0.12500000
 q=   0.12500000 -0.62500000 -0.12500000
 q=  -0.12500000 -0.62500000  0.12500000
 q=   0.12500000 -0.12500000 -0.62500000
 q=   0.62500000 -0.12500000 -0.12500000
 q=  -0.62500000 -0.12500000  0.12500000
 q=   0.62500000  0.12500000  0.12500000
 q=  -0.12500000 -0.12500000  0.62500000
 q=   0.12500000  0.12500000  0.62500000
 q=  -0.62500000  0.12500000 -0.12500000
 q=  -0.12500000  0.12500000 -0.62500000
 q=  -0.62500000 -0.12500000 -0.12500000
 q=   0.12500000  0.12500000 -0.62500000
 q=   0.62500000  0.12500000 -0.12500000
 q=  -0.12500000 -0.12500000 -0.62500000
 q=  -0.62500000  0.12500000  0.12500000
 q=  -0.12500000  0.12500000  0.62500000
  reading force constants from file Si.dyn15
  nqs=           24
 q=   0.75000000 -0.25000000  0.75000000
 q=  -0.75000000 -0.25000000  0.75000000
 q=  -0.75000000 -0.25000000 -0.75000000
 q=   0.75000000 -0.25000000 -0.75000000
 q=  -0.75000000  0.25000000 -0.75000000
 q=  -0.25000000  0.75000000 -0.75000000
 q=  -0.75000000  0.75000000 -0.25000000
 q=   0.75000000  0.25000000  0.75000000
 q=  -0.75000000  0.25000000  0.75000000
 q=   0.75000000  0.25000000 -0.75000000
 q=  -0.75000000  0.75000000  0.25000000
 q=  -0.25000000  0.75000000  0.75000000
 q=   0.25000000  0.75000000 -0.75000000
 q=  -0.25000000 -0.75000000 -0.75000000
 q=   0.75000000  0.75000000 -0.25000000
 q=  -0.75000000 -0.75000000 -0.25000000
 q=   0.25000000 -0.75000000  0.75000000
 q=   0.75000000 -0.75000000  0.25000000
 q=   0.25000000  0.75000000  0.75000000
 q=  -0.75000000 -0.75000000  0.25000000
 q=  -0.25000000 -0.75000000  0.75000000
 q=   0.75000000  0.75000000  0.25000000
 q=   0.25000000 -0.75000000 -0.75000000
 q=   0.75000000 -0.75000000 -0.25000000
  reading force constants from file Si.dyn16
  nqs=           24
 q=   0.62500000 -0.12500000  0.62500000
 q=  -0.62500000 -0.12500000  0.62500000
 q=  -0.62500000 -0.12500000 -0.62500000
 q=   0.62500000 -0.12500000 -0.62500000
 q=  -0.62500000  0.12500000 -0.62500000
 q=  -0.12500000  0.62500000 -0.62500000
 q=  -0.62500000  0.62500000 -0.12500000
 q=   0.62500000  0.12500000  0.62500000
 q=  -0.62500000  0.12500000  0.62500000
 q=   0.62500000  0.12500000 -0.62500000
 q=  -0.62500000  0.62500000  0.12500000
 q=  -0.12500000  0.62500000  0.62500000
 q=   0.12500000  0.62500000 -0.62500000
 q=  -0.12500000 -0.62500000 -0.62500000
 q=   0.62500000  0.62500000 -0.12500000
 q=  -0.62500000 -0.62500000 -0.12500000
 q=   0.12500000 -0.62500000  0.62500000
 q=   0.62500000 -0.62500000  0.12500000
 q=   0.12500000  0.62500000  0.62500000
 q=  -0.62500000 -0.62500000  0.12500000
 q=  -0.12500000 -0.62500000  0.62500000
 q=   0.62500000  0.62500000  0.12500000
 q=   0.12500000 -0.62500000 -0.62500000
 q=   0.62500000 -0.62500000 -0.12500000
  reading force constants from file Si.dyn17
  nqs=           12
 q=   0.50000000  0.00000000  0.50000000
 q=  -0.50000000  0.00000000  0.50000000
 q=  -0.50000000  0.00000000 -0.50000000
 q=   0.50000000  0.00000000 -0.50000000
 q=   0.00000000  0.50000000 -0.50000000
 q=  -0.50000000  0.50000000  0.00000000
 q=   0.00000000  0.50000000  0.50000000
 q=   0.00000000 -0.50000000 -0.50000000
 q=   0.50000000  0.50000000  0.00000000
 q=  -0.50000000 -0.50000000  0.00000000
 q=   0.00000000 -0.50000000  0.50000000
 q=   0.50000000 -0.50000000  0.00000000
  reading force constants from file Si.dyn18
  nqs=            6
 q=   0.00000000  0.75000000  0.00000000
 q=   0.00000000 -0.75000000  0.00000000
 q=   0.75000000  0.00000000  0.00000000
 q=   0.00000000  0.00000000  0.75000000
 q=   0.00000000  0.00000000 -0.75000000
 q=  -0.75000000  0.00000000  0.00000000
  reading force constants from file Si.dyn19
  nqs=           24
 q=   0.87500000 -0.12500000  0.87500000
 q=  -0.87500000 -0.12500000  0.87500000
 q=  -0.87500000 -0.12500000 -0.87500000
 q=   0.87500000 -0.12500000 -0.87500000
 q=  -0.87500000  0.12500000 -0.87500000
 q=  -0.12500000  0.87500000 -0.87500000
 q=  -0.87500000  0.87500000 -0.12500000
 q=   0.87500000  0.12500000  0.87500000
 q=  -0.87500000  0.12500000  0.87500000
 q=   0.87500000  0.12500000 -0.87500000
 q=  -0.87500000  0.87500000  0.12500000
 q=  -0.12500000  0.87500000  0.87500000
 q=   0.12500000  0.87500000 -0.87500000
 q=  -0.12500000 -0.87500000 -0.87500000
 q=   0.87500000  0.87500000 -0.12500000
 q=  -0.87500000 -0.87500000 -0.12500000
 q=   0.12500000 -0.87500000  0.87500000
 q=   0.87500000 -0.87500000  0.12500000
 q=   0.12500000  0.87500000  0.87500000
 q=  -0.87500000 -0.87500000  0.12500000
 q=  -0.12500000 -0.87500000  0.87500000
 q=   0.87500000  0.87500000  0.12500000
 q=   0.12500000 -0.87500000 -0.87500000
 q=   0.87500000 -0.87500000 -0.12500000
  reading force constants from file Si.dyn20
  nqs=           12
 q=   0.75000000  0.00000000  0.75000000
 q=   0.75000000  0.00000000 -0.75000000
 q=  -0.75000000  0.00000000  0.75000000
 q=  -0.75000000  0.00000000 -0.75000000
 q=   0.00000000  0.75000000 -0.75000000
 q=  -0.75000000  0.75000000  0.00000000
 q=   0.00000000  0.75000000  0.75000000
 q=   0.00000000 -0.75000000 -0.75000000
 q=   0.75000000  0.75000000  0.00000000
 q=  -0.75000000 -0.75000000  0.00000000
 q=   0.00000000 -0.75000000  0.75000000
 q=   0.75000000 -0.75000000  0.00000000
  reading force constants from file Si.dyn21
  nqs=            3
 q=   0.00000000 -1.00000000  0.00000000
 q=  -1.00000000  0.00000000  0.00000000
 q=   0.00000000  0.00000000 -1.00000000
  reading force constants from file Si.dyn22
  nqs=           24
 q=  -0.25000000  0.50000000  0.00000000
 q=   0.00000000 -0.50000000 -0.25000000
 q=  -0.25000000 -0.50000000  0.00000000
 q=   0.00000000  0.50000000  0.25000000
 q=   0.00000000  0.50000000 -0.25000000
 q=   0.25000000  0.50000000  0.00000000
 q=   0.00000000 -0.50000000  0.25000000
 q=   0.25000000 -0.50000000  0.00000000
 q=   0.50000000  0.00000000 -0.25000000
 q=  -0.50000000  0.00000000  0.25000000
 q=   0.50000000  0.00000000  0.25000000
 q=   0.50000000 -0.25000000  0.00000000
 q=   0.00000000 -0.25000000  0.50000000
 q=   0.00000000  0.25000000  0.50000000
 q=   0.00000000 -0.25000000 -0.50000000
 q=  -0.50000000  0.25000000  0.00000000
 q=  -0.50000000  0.00000000 -0.25000000
 q=  -0.25000000  0.00000000 -0.50000000
 q=  -0.50000000 -0.25000000  0.00000000
 q=   0.50000000  0.25000000  0.00000000
 q=   0.25000000  0.00000000 -0.50000000
 q=   0.00000000  0.25000000 -0.50000000
 q=  -0.25000000  0.00000000  0.50000000
 q=   0.25000000  0.00000000  0.50000000
  reading force constants from file Si.dyn23
  nqs=           48
 q=   0.62500000 -0.37500000  0.87500000
 q=   0.62500000 -0.37500000 -0.87500000
 q=   0.87500000  0.37500000  0.62500000
 q=   0.62500000  0.37500000  0.87500000
 q=   0.87500000 -0.37500000 -0.62500000
 q=   0.87500000 -0.37500000  0.62500000
 q=  -0.87500000 -0.37500000  0.62500000
 q=  -0.62500000 -0.37500000 -0.87500000
 q=  -0.87500000  0.37500000 -0.62500000
 q=  -0.62500000 -0.37500000  0.87500000
 q=  -0.87500000  0.37500000  0.62500000
 q=   0.87500000  0.37500000 -0.62500000
 q=  -0.62500000  0.37500000  0.87500000
 q=  -0.87500000 -0.37500000 -0.62500000
 q=   0.62500000  0.37500000 -0.87500000
 q=  -0.62500000  0.37500000 -0.87500000
 q=  -0.37500000  0.87500000  0.62500000
 q=   0.37500000  0.87500000 -0.62500000
 q=  -0.37500000 -0.87500000 -0.62500000
 q=  -0.37500000  0.62500000 -0.87500000
 q=   0.87500000  0.62500000 -0.37500000
 q=  -0.37500000  0.87500000 -0.62500000
 q=  -0.87500000 -0.62500000 -0.37500000
 q=  -0.87500000  0.62500000  0.37500000
 q=   0.37500000 -0.62500000  0.87500000
 q=   0.37500000 -0.87500000  0.62500000
 q=   0.62500000 -0.87500000  0.37500000
 q=  -0.87500000  0.62500000 -0.37500000
 q=   0.37500000  0.62500000  0.87500000
 q=  -0.37500000  0.62500000  0.87500000
 q=   0.37500000  0.62500000 -0.87500000
 q=  -0.37500000 -0.62500000 -0.87500000
 q=  -0.62500000 -0.87500000  0.37500000
 q=  -0.37500000 -0.62500000  0.87500000
 q=   0.87500000 -0.62500000  0.37500000
 q=   0.62500000  0.87500000  0.37500000
 q=   0.37500000 -0.62500000 -0.87500000
 q=   0.62500000  0.87500000 -0.37500000
 q=  -0.62500000 -0.87500000 -0.37500000
 q=  -0.62500000  0.87500000 -0.37500000
 q=   0.37500000 -0.87500000 -0.62500000
 q=  -0.37500000 -0.87500000  0.62500000
 q=   0.37500000  0.87500000  0.62500000
 q=   0.62500000 -0.87500000 -0.37500000
 q=  -0.87500000 -0.62500000  0.37500000
 q=  -0.62500000  0.87500000  0.37500000
 q=   0.87500000  0.62500000  0.37500000
 q=   0.87500000 -0.62500000 -0.37500000
  reading force constants from file Si.dyn24
  nqs=           24
 q=   0.50000000 -0.25000000  0.75000000
 q=   0.75000000  0.25000000  0.50000000
 q=   0.50000000  0.25000000  0.75000000
 q=   0.75000000 -0.25000000 -0.50000000
 q=   0.75000000 -0.25000000  0.50000000
 q=  -0.75000000 -0.25000000  0.50000000
 q=  -0.50000000 -0.25000000 -0.75000000
 q=  -0.75000000  0.25000000 -0.50000000
 q=  -0.50000000 -0.25000000  0.75000000
 q=  -0.75000000  0.25000000  0.50000000
 q=   0.75000000  0.25000000 -0.50000000
 q=  -0.50000000  0.25000000  0.75000000
 q=  -0.75000000 -0.25000000 -0.50000000
 q=   0.50000000  0.25000000 -0.75000000
 q=  -0.50000000  0.25000000 -0.75000000
 q=  -0.25000000  0.50000000 -0.75000000
 q=   0.75000000  0.50000000 -0.25000000
 q=  -0.75000000 -0.50000000 -0.25000000
 q=  -0.75000000  0.50000000  0.25000000
 q=   0.25000000 -0.50000000  0.75000000
 q=  -0.25000000  0.50000000  0.75000000
 q=   0.25000000  0.50000000 -0.75000000
 q=  -0.25000000 -0.50000000 -0.75000000
 q=   0.50000000 -0.25000000 -0.75000000
  reading force constants from file Si.dyn25
  nqs=           24
 q=   0.75000000 -0.25000000  1.00000000
 q=   1.00000000  0.25000000  0.75000000
 q=   0.75000000  0.25000000  1.00000000
 q=   1.00000000 -0.25000000 -0.75000000
 q=   1.00000000 -0.25000000  0.75000000
 q=  -0.75000000 -0.25000000 -1.00000000
 q=  -1.00000000  0.25000000 -0.75000000
 q=  -0.75000000  0.25000000  1.00000000
 q=  -0.25000000  1.00000000  0.75000000
 q=   0.25000000  1.00000000 -0.75000000
 q=  -0.25000000 -1.00000000 -0.75000000
 q=  -0.25000000  0.75000000 -1.00000000
 q=   1.00000000  0.75000000 -0.25000000
 q=  -1.00000000 -0.75000000 -0.25000000
 q=  -1.00000000  0.75000000  0.25000000
 q=   0.25000000 -0.75000000  1.00000000
 q=   0.25000000 -1.00000000  0.75000000
 q=   0.75000000 -1.00000000  0.25000000
 q=   0.25000000  0.75000000  1.00000000
 q=  -0.25000000 -0.75000000 -1.00000000
 q=  -0.75000000 -1.00000000  0.25000000
 q=   1.00000000 -0.75000000  0.25000000
 q=   0.75000000  1.00000000 -0.25000000
 q=  -0.75000000 -1.00000000 -0.25000000
  reading force constants from file Si.dyn26
  nqs=           48
 q=   0.62500000 -0.12500000  0.87500000
 q=   0.62500000 -0.12500000 -0.87500000
 q=   0.87500000  0.12500000  0.62500000
 q=   0.62500000  0.12500000  0.87500000
 q=   0.87500000 -0.12500000 -0.62500000
 q=   0.87500000 -0.12500000  0.62500000
 q=  -0.87500000 -0.12500000  0.62500000
 q=  -0.62500000 -0.12500000 -0.87500000
 q=  -0.87500000  0.12500000 -0.62500000
 q=  -0.62500000 -0.12500000  0.87500000
 q=  -0.87500000  0.12500000  0.62500000
 q=   0.87500000  0.12500000 -0.62500000
 q=  -0.62500000  0.12500000  0.87500000
 q=  -0.87500000 -0.12500000 -0.62500000
 q=   0.62500000  0.12500000 -0.87500000
 q=  -0.62500000  0.12500000 -0.87500000
 q=  -0.12500000  0.87500000  0.62500000
 q=   0.12500000  0.87500000 -0.62500000
 q=  -0.12500000 -0.87500000 -0.62500000
 q=  -0.12500000  0.62500000 -0.87500000
 q=   0.87500000  0.62500000 -0.12500000
 q=  -0.12500000  0.87500000 -0.62500000
 q=  -0.87500000 -0.62500000 -0.12500000
 q=  -0.87500000  0.62500000  0.12500000
 q=   0.12500000 -0.62500000  0.87500000
 q=   0.12500000 -0.87500000  0.62500000
 q=   0.62500000 -0.87500000  0.12500000
 q=  -0.87500000  0.62500000 -0.12500000
 q=   0.12500000  0.62500000  0.87500000
 q=  -0.12500000  0.62500000  0.87500000
 q=   0.12500000  0.62500000 -0.87500000
 q=  -0.12500000 -0.62500000 -0.87500000
 q=  -0.62500000 -0.87500000  0.12500000
 q=  -0.12500000 -0.62500000  0.87500000
 q=   0.87500000 -0.62500000  0.12500000
 q=   0.62500000  0.87500000  0.12500000
 q=   0.12500000 -0.62500000 -0.87500000
 q=   0.62500000  0.87500000 -0.12500000
 q=  -0.62500000 -0.87500000 -0.12500000
 q=  -0.62500000  0.87500000 -0.12500000
 q=   0.12500000 -0.87500000 -0.62500000
 q=  -0.12500000 -0.87500000  0.62500000
 q=   0.12500000  0.87500000  0.62500000
 q=   0.62500000 -0.87500000 -0.12500000
 q=  -0.87500000 -0.62500000  0.12500000
 q=  -0.62500000  0.87500000  0.12500000
 q=   0.87500000  0.62500000  0.12500000
 q=   0.87500000 -0.62500000 -0.12500000
  reading force constants from file Si.dyn27
  nqs=           24
 q=   0.50000000  0.00000000  0.75000000
 q=   0.75000000  0.00000000  0.50000000
 q=   0.50000000  0.00000000 -0.75000000
 q=   0.75000000  0.00000000 -0.50000000
 q=  -0.75000000  0.00000000  0.50000000
 q=  -0.50000000  0.00000000 -0.75000000
 q=  -0.75000000  0.00000000 -0.50000000
 q=  -0.50000000  0.00000000  0.75000000
 q=   0.00000000  0.75000000  0.50000000
 q=   0.00000000  0.75000000 -0.50000000
 q=   0.00000000 -0.75000000 -0.50000000
 q=   0.00000000  0.50000000 -0.75000000
 q=   0.75000000  0.50000000  0.00000000
 q=  -0.75000000 -0.50000000  0.00000000
 q=  -0.75000000  0.50000000  0.00000000
 q=   0.00000000 -0.50000000  0.75000000
 q=   0.00000000 -0.75000000  0.50000000
 q=   0.50000000 -0.75000000  0.00000000
 q=   0.00000000  0.50000000  0.75000000
 q=   0.00000000 -0.50000000 -0.75000000
 q=  -0.50000000 -0.75000000  0.00000000
 q=   0.75000000 -0.50000000  0.00000000
 q=   0.50000000  0.75000000  0.00000000
 q=  -0.50000000  0.75000000  0.00000000
  reading force constants from file Si.dyn28
  nqs=           12
 q=  -0.25000000 -1.00000000  0.00000000
 q=   0.00000000 -1.00000000  0.25000000
 q=   0.00000000 -1.00000000 -0.25000000
 q=   0.25000000 -1.00000000  0.00000000
 q=  -1.00000000  0.00000000 -0.25000000
 q=   1.00000000  0.00000000  0.25000000
 q=  -1.00000000 -0.25000000  0.00000000
 q=   0.00000000 -0.25000000 -1.00000000
 q=   0.00000000  0.25000000 -1.00000000
 q=   1.00000000  0.25000000  0.00000000
 q=  -0.25000000  0.00000000  1.00000000
 q=   0.25000000  0.00000000  1.00000000
  reading force constants from file Si.dyn29
  nqs=            6
 q=  -0.50000000 -1.00000000  0.00000000
 q=   0.00000000  1.00000000  0.50000000
 q=   0.50000000 -1.00000000  0.00000000
 q=   0.00000000  1.00000000 -0.50000000
 q=  -1.00000000 -0.50000000  0.00000000
 q=   0.00000000 -0.50000000 -1.00000000

      q-space grid ok, #points =  512

      fft-check success (sum of imaginary terms < 10^-12)
 
     Q2R          :      0.19s CPU      0.23s WALL

 
   This run was terminated on:  21:20:16  26Dec2022            

=------------------------------------------------------------------------------=
   JOB DONE.
=------------------------------------------------------------------------------=

 style : tpiba
   0.00000    0.00000    0.00000  53  !  GAMMA
   0.00000   -1.00000    0.00000  40  !  X
  -0.25000   -1.00000   -0.25000  1  !  U
   0.00000   -0.75000   -0.75000  53  !  K
   0.00000    0.00000    0.00000  43  !  GAMMA
  -0.50000   -0.50000   -0.50000  35  !  L
   0.00000   -1.00000   -0.50000  25  !  W
   0.00000   -1.00000    0.00000  1  !  X
 Output band.in

     Program MATDYN v.7.1 starts on 26Dec2022 at 21:20:18 

     This program is part of the open-source Quantum ESPRESSO suite
     for quantum simulation of materials; please cite
         "P. Giannozzi et al., J. Phys.:Condens. Matter 21 395502 (2009);
         "P. Giannozzi et al., J. Phys.:Condens. Matter 29 465901 (2017);
         "P. Giannozzi et al., J. Chem. Phys. 152 154105 (2020);
          URL http://www.quantum-espresso.org", 
     in publications or presentations arising from this work. More details at
     http://www.quantum-espresso.org/quote

     Parallel version (MPI), running on    24 processors

     MPI processes distributed on     1 nodes
     R & G space division:  proc/nbgrp/npool/nimage =      24
     106945 MiB available memory on the printing compute node when the environment starts
 
 mass for atomic type   1 not given; uses mass from file Si.fc                                                                                                                                                                                                                                                           
 
     MATDYN       :      0.17s CPU      0.18s WALL

 
   This run was terminated on:  21:20:19  26Dec2022            

=------------------------------------------------------------------------------=
   JOB DONE.
=------------------------------------------------------------------------------=
 Output fig_band.png

     Program MATDYN v.7.1 starts on 26Dec2022 at 21:20:21 

     This program is part of the open-source Quantum ESPRESSO suite
     for quantum simulation of materials; please cite
         "P. Giannozzi et al., J. Phys.:Condens. Matter 21 395502 (2009);
         "P. Giannozzi et al., J. Phys.:Condens. Matter 29 465901 (2017);
         "P. Giannozzi et al., J. Chem. Phys. 152 154105 (2020);
          URL http://www.quantum-espresso.org", 
     in publications or presentations arising from this work. More details at
     http://www.quantum-espresso.org/quote

     Parallel version (MPI), running on    24 processors

     MPI processes distributed on     1 nodes
     R & G space division:  proc/nbgrp/npool/nimage =      24
     106943 MiB available memory on the printing compute node when the environment starts
 
 mass for atomic type   1 not given; uses mass from file Si.fc                                                                                                                                                                                                                                                           
 
     MATDYN       :      3.06s CPU      3.07s WALL

 
   This run was terminated on:  21:20:24  26Dec2022            

=------------------------------------------------------------------------------=
   JOB DONE.
=------------------------------------------------------------------------------=
 Output fig_dos.png
 Output fig_dos.png
 Output fig_dos.png
 Output fig_dos.png
 Output fig_dos.png
 Output fig_dos.png
 Output fig_dos.png
 Output fig_dos.png
 Output fig_dos.png
 Output fig_dos.png
 Output fig_dos.png
 Output fig_dos.png
 Output fig_dos.png
 Output fig_dos.png
 Output fig_dos.png
 Output fig_dos.png
 Output fig_dos.png
 Output fig_dos.png
 Output fig_dos.png
 Output fig_dos.png
 Output fig_dos.png
 Output fig_dos.png
 Output fig_dos.png
 Output fig_dos.png
