 
:: initializing oneAPI environment ...
   -bash: BASH_VERSION = 4.2.46(2)-release
   args: Using "$@" for setvars.sh arguments: 
:: advisor -- latest
:: ccl -- latest
:: clck -- latest
:: compiler -- latest
:: dal -- latest
:: debugger -- latest
:: dev-utilities -- latest
:: dnnl -- latest
:: dpcpp-ct -- latest
:: dpl -- latest
:: inspector -- latest
:: intelpython -- latest
:: ipp -- latest
:: ippcp -- latest
:: itac -- latest
:: mkl -- latest
:: mpi -- latest
:: tbb -- latest
:: vpl -- latest
:: vtune -- latest
:: oneAPI environment initialized ::
 
rm: cannot remove 'phonon.o*': No such file or directory

     Program PWSCF v.7.1 starts on 27Dec2022 at 14: 4:59 

     This program is part of the open-source Quantum ESPRESSO suite
     for quantum simulation of materials; please cite
         "P. Giannozzi et al., J. Phys.:Condens. Matter 21 395502 (2009);
         "P. Giannozzi et al., J. Phys.:Condens. Matter 29 465901 (2017);
         "P. Giannozzi et al., J. Chem. Phys. 152 154105 (2020);
          URL http://www.quantum-espresso.org", 
     in publications or presentations arising from this work. More details at
     http://www.quantum-espresso.org/quote

     Parallel version (MPI), running on    12 processors

     MPI processes distributed on     1 nodes
     106405 MiB available memory on the printing compute node when the environment starts
 
     Waiting for input...
     Reading input from standard input
Warning: card &CELL ignored
Warning: card / ignored

     Current dimensions of program PWSCF are:
     Max number of different atomic species (ntypx) = 10
     Max number of k-points (npk) =  40000
     Max angular momentum in pseudopotentials (lmaxx) =  4
 
     R & G space division:  proc/nbgrp/npool/nimage =      12
     Subspace diagonalization in iterative solution of the eigenvalue problem:
     a serial algorithm will be used

 
     Parallelization info
     --------------------
     sticks:   dense  smooth     PW     G-vecs:    dense   smooth      PW
     Min          71      71     21                 1407     1407     228
     Max          72      72     22                 1410     1410     232
     Sum         859     859    253                16889    16889    2741
 
     Using Slab Decomposition
 


     bravais-lattice index     =            2
     lattice parameter (alat)  =      10.2672  a.u.
     unit-cell volume          =     270.5802 (a.u.)^3
     number of atoms/cell      =            2
     number of atomic types    =            1
     number of electrons       =         8.00
     number of Kohn-Sham states=            4
     kinetic-energy cutoff     =      60.0000  Ry
     charge density cutoff     =     240.0000  Ry
     scf convergence threshold =      1.0E-06
     mixing beta               =       0.7000
     number of iterations used =            8  plain     mixing
     Exchange-correlation= PBESOL
                           (   1   4  10   8   0   0   0)

     celldm(1)=  10.267200  celldm(2)=   0.000000  celldm(3)=   0.000000
     celldm(4)=   0.000000  celldm(5)=   0.000000  celldm(6)=   0.000000

     crystal axes: (cart. coord. in units of alat)
               a(1) = (  -0.500000   0.000000   0.500000 )  
               a(2) = (   0.000000   0.500000   0.500000 )  
               a(3) = (  -0.500000   0.500000   0.000000 )  

     reciprocal axes: (cart. coord. in units 2 pi/alat)
               b(1) = ( -1.000000 -1.000000  1.000000 )  
               b(2) = (  1.000000  1.000000  1.000000 )  
               b(3) = ( -1.000000  1.000000 -1.000000 )  


     PseudoPot. # 1 for Si read from file:
     ../pseudo/Si.pbesol-n-rrkjus_psl.1.0.0.UPF
     MD5 check sum: c4212819de858c94c3a1644338846ac9
     Pseudo is Ultrasoft + core correction, Zval =  4.0
     Generated using "atomic" code by A. Dal Corso  v.6.0 svn rev. 13079
     Using radial grid of 1141 points,  6 beta functions with: 
                l(1) =   0
                l(2) =   0
                l(3) =   1
                l(4) =   1
                l(5) =   2
                l(6) =   2
     Q(r) pseudized with 0 coefficients 


     atomic species   valence    mass     pseudopotential
        Si             4.00    28.08550     Si( 1.00)

     48 Sym. Ops., with inversion, found (24 have fractional translation)



   Cartesian axes

     site n.     atom                  positions (alat units)
         1           Si  tau(   1) = (  -0.2500000   0.2500000   0.2500000  )
         2           Si  tau(   2) = (  -0.5000000   0.5000000   0.5000000  )

     number of k points=    10
                       cart. coord. in units 2pi/alat
        k(    1) = (  -0.1250000   0.1250000   0.1250000), wk =   0.0625000
        k(    2) = (  -0.3750000   0.3750000  -0.1250000), wk =   0.1875000
        k(    3) = (   0.3750000  -0.3750000   0.6250000), wk =   0.1875000
        k(    4) = (   0.1250000  -0.1250000   0.3750000), wk =   0.1875000
        k(    5) = (  -0.1250000   0.6250000   0.1250000), wk =   0.1875000
        k(    6) = (   0.6250000  -0.1250000   0.8750000), wk =   0.3750000
        k(    7) = (   0.3750000   0.1250000   0.6250000), wk =   0.3750000
        k(    8) = (  -0.1250000  -0.8750000   0.1250000), wk =   0.1875000
        k(    9) = (  -0.3750000   0.3750000   0.3750000), wk =   0.0625000
        k(   10) = (   0.3750000  -0.3750000   1.1250000), wk =   0.1875000

     Dense  grid:    16889 G-vectors     FFT dimensions: (  36,  36,  36)

     Estimated max dynamical RAM per process >       6.36 MB

     Estimated total dynamical RAM >      76.30 MB

     Initial potential from superposition of free atoms

     starting charge       7.9989, renormalised to       8.0000
     Starting wfcs are    8 randomized atomic wfcs

     total cpu time spent up to now is        0.2 secs

     Self-consistent Calculation

     iteration #  1     ecut=    60.00 Ry     beta= 0.70
     Davidson diagonalization with overlap
     ethr =  1.00E-02,  avg # of iterations =  2.0

     Threshold (ethr) on eigenvalues was too large:
     Diagonalizing with lowered threshold

     Davidson diagonalization with overlap
     ethr =  6.04E-04,  avg # of iterations =  1.5

     total cpu time spent up to now is        0.3 secs

     total energy              =     -22.67471104 Ry
     estimated scf accuracy    <       0.05263486 Ry

     iteration #  2     ecut=    60.00 Ry     beta= 0.70
     Davidson diagonalization with overlap
     ethr =  6.58E-04,  avg # of iterations =  1.0

     total cpu time spent up to now is        0.3 secs

     total energy              =     -22.67670747 Ry
     estimated scf accuracy    <       0.00244793 Ry

     iteration #  3     ecut=    60.00 Ry     beta= 0.70
     Davidson diagonalization with overlap
     ethr =  3.06E-05,  avg # of iterations =  3.3

     total cpu time spent up to now is        0.4 secs

     total energy              =     -22.67763966 Ry
     estimated scf accuracy    <       0.00014710 Ry

     iteration #  4     ecut=    60.00 Ry     beta= 0.70
     Davidson diagonalization with overlap
     ethr =  1.84E-06,  avg # of iterations =  3.4

     total cpu time spent up to now is        0.4 secs

     total energy              =     -22.67768689 Ry
     estimated scf accuracy    <       0.00004494 Ry

     iteration #  5     ecut=    60.00 Ry     beta= 0.70
     Davidson diagonalization with overlap
     ethr =  5.62E-07,  avg # of iterations =  2.7

     total cpu time spent up to now is        0.4 secs

     End of self-consistent calculation

          k =-0.1250 0.1250 0.1250 (  2112 PWs)   bands (ev):

    -5.6314   4.5309   5.8519   5.8520

          k =-0.3750 0.3750-0.1250 (  2117 PWs)   bands (ev):

    -4.5822   1.4975   3.8059   5.3676

          k = 0.3750-0.3750 0.6250 (  2122 PWs)   bands (ev):

    -3.4058  -0.6382   3.8414   4.5723

          k = 0.1250-0.1250 0.3750 (  2117 PWs)   bands (ev):

    -5.0927   2.9046   4.8130   4.8866

          k =-0.1250 0.6250 0.1250 (  2120 PWs)   bands (ev):

    -4.0397   1.1955   3.4433   3.9193

          k = 0.6250-0.1250 0.8750 (  2142 PWs)   bands (ev):

    -2.3551  -0.7966   2.0341   3.1503

          k = 0.3750 0.1250 0.6250 (  2117 PWs)   bands (ev):

    -3.6108   0.2853   2.7863   4.1951

          k =-0.1250-0.8750 0.1250 (  2127 PWs)   bands (ev):

    -2.5357  -0.6928   2.6700   3.4430

          k =-0.3750 0.3750 0.3750 (  2126 PWs)   bands (ev):

    -4.1360   0.1655   5.0525   5.0525

          k = 0.3750-0.3750 1.1250 (  2125 PWs)   bands (ev):

    -2.9008  -0.5166   2.1058   4.2450

     highest occupied level (ev):     5.8520

!    total energy              =     -22.67769629 Ry
     estimated scf accuracy    <       0.00000007 Ry

     The total energy is the sum of the following terms:
     one-electron contribution =       5.16677410 Ry
     hartree contribution      =       1.08171110 Ry
     xc contribution           =     -12.13703378 Ry
     ewald contribution        =     -16.78914772 Ry

     convergence has been achieved in   5 iterations

     Writing all to output data dir ./out/Si.save/
 
     init_run     :      0.12s CPU      0.14s WALL (       1 calls)
     electrons    :      0.17s CPU      0.18s WALL (       1 calls)

     Called by init_run:
     wfcinit      :      0.02s CPU      0.02s WALL (       1 calls)
     potinit      :      0.01s CPU      0.01s WALL (       1 calls)
     hinit0       :      0.08s CPU      0.10s WALL (       1 calls)

     Called by electrons:
     c_bands      :      0.10s CPU      0.11s WALL (       6 calls)
     sum_band     :      0.04s CPU      0.04s WALL (       6 calls)
     v_of_rho     :      0.01s CPU      0.01s WALL (       6 calls)
     newd         :      0.01s CPU      0.02s WALL (       6 calls)
     mix_rho      :      0.00s CPU      0.00s WALL (       6 calls)

     Called by c_bands:
     init_us_2    :      0.00s CPU      0.01s WALL (     130 calls)
     init_us_2:cp :      0.00s CPU      0.01s WALL (     130 calls)
     cegterg      :      0.07s CPU      0.08s WALL (      60 calls)

     Called by *egterg:
     cdiaghg      :      0.01s CPU      0.01s WALL (     189 calls)
     h_psi        :      0.06s CPU      0.07s WALL (     209 calls)
     s_psi        :      0.00s CPU      0.00s WALL (     209 calls)
     g_psi        :      0.00s CPU      0.00s WALL (     139 calls)

     Called by h_psi:
     h_psi:calbec :      0.00s CPU      0.01s WALL (     209 calls)
     vloc_psi     :      0.06s CPU      0.06s WALL (     209 calls)
     add_vuspsi   :      0.00s CPU      0.00s WALL (     209 calls)

     General routines
     calbec       :      0.01s CPU      0.01s WALL (     269 calls)
     fft          :      0.04s CPU      0.06s WALL (      67 calls)
     ffts         :      0.00s CPU      0.00s WALL (       6 calls)
     fftw         :      0.06s CPU      0.06s WALL (    1746 calls)
 
     Parallel routines
 
     PWSCF        :      0.37s CPU      0.48s WALL

 
   This run was terminated on:  14: 5: 0  27Dec2022            

=------------------------------------------------------------------------------=
   JOB DONE.
=------------------------------------------------------------------------------=

     Program PHONON v.7.1 starts on 27Dec2022 at 14: 5: 1 

     This program is part of the open-source Quantum ESPRESSO suite
     for quantum simulation of materials; please cite
         "P. Giannozzi et al., J. Phys.:Condens. Matter 21 395502 (2009);
         "P. Giannozzi et al., J. Phys.:Condens. Matter 29 465901 (2017);
         "P. Giannozzi et al., J. Chem. Phys. 152 154105 (2020);
          URL http://www.quantum-espresso.org", 
     in publications or presentations arising from this work. More details at
     http://www.quantum-espresso.org/quote

     Parallel version (MPI), running on    12 processors

     MPI processes distributed on     1 nodes
     106385 MiB available memory on the printing compute node when the environment starts
 
     Waiting for input...
     Reading input from standard input
      Title line not specified: using 'default'.

     Reading xml data from directory:

     ./out/Si.save/
 
     R & G space division:  proc/nbgrp/npool/nimage =      12
     Subspace diagonalization in iterative solution of the eigenvalue problem:
     a serial algorithm will be used


     IMPORTANT: XC functional enforced from input :
     Exchange-correlation= PBESOL
                           (   1   4  10   8   0   0   0)
     Any further DFT definition will be discarded
     Please, verify this is what you really want

 
     Parallelization info
     --------------------
     sticks:   dense  smooth     PW     G-vecs:    dense   smooth      PW
     Min          71      71     21                 1407     1407     228
     Max          72      72     22                 1410     1410     232
     Sum         859     859    253                16889    16889    2741
 
     Using Slab Decomposition
 
     Reading collected, re-writing distributed wavefunctions in ./out/


     Dynamical matrices for ( 2, 2, 2)  uniform grid of q-points
     (   3 q-points):
       N         xq(1)         xq(2)         xq(3) 
       1   0.000000000   0.000000000   0.000000000
       2   0.500000000  -0.500000000   0.500000000
       3   0.000000000  -1.000000000   0.000000000

     Calculation of q =    0.0000000   0.0000000   0.0000000

     default                                                                    

     bravais-lattice index     =            2
     lattice parameter (alat)  =      10.2672  a.u.
     unit-cell volume          =     270.5802 (a.u.)^3
     number of atoms/cell      =            2
     number of atomic types    =            1
     kinetic-energy cut-off    =      60.0000  Ry
     charge density cut-off    =     240.0000  Ry
     convergence threshold     =      1.0E-14
     beta                      =       0.7000
     number of iterations used =            4
     Exchange-correlation= PBESOL
                           (   1   4  10   8   0   0   0)


     celldm(1)=   10.26720  celldm(2)=    0.00000  celldm(3)=    0.00000
     celldm(4)=    0.00000  celldm(5)=    0.00000  celldm(6)=    0.00000

     crystal axes: (cart. coord. in units of alat)
               a(1) = ( -0.5000  0.0000  0.5000 )  
               a(2) = (  0.0000  0.5000  0.5000 )  
               a(3) = ( -0.5000  0.5000  0.0000 )  

     reciprocal axes: (cart. coord. in units 2 pi/alat)
               b(1) = ( -1.0000 -1.0000  1.0000 )  
               b(2) = (  1.0000  1.0000  1.0000 )  
               b(3) = ( -1.0000  1.0000 -1.0000 )  


     Atoms inside the unit cell: 

     Cartesian axes

     site n.  atom      mass           positions (alat units)
        1     Si  28.0855   tau(    1) = (   -0.25000    0.25000    0.25000  )
        2     Si  28.0855   tau(    2) = (   -0.50000    0.50000    0.50000  )

     Computing dynamical matrix for 
                    q = (   0.0000000   0.0000000   0.0000000 )
 
     49 Sym.Ops. (with q -> -q+G )


     G cutoff =  640.8488  (   1410 G-vectors)     FFT grid: ( 36, 36, 36)
     number of k points=    10

     PseudoPot. # 1 for Si read from file:
     ../pseudo/Si.pbesol-n-rrkjus_psl.1.0.0.UPF
     MD5 check sum: c4212819de858c94c3a1644338846ac9
     Pseudo is Ultrasoft + core correction, Zval =  4.0
     Generated using "atomic" code by A. Dal Corso  v.6.0 svn rev. 13079
     Using radial grid of 1141 points,  6 beta functions with: 
                l(1) =   0
                l(2) =   0
                l(3) =   1
                l(4) =   1
                l(5) =   2
                l(6) =   2
     Q(r) pseudized with 0 coefficients 


     Mode symmetry, O_h (m-3m)  point group:


     Electric field:
     Dielectric constant
     Born effective charges in two ways 


     Atomic displacements:
     There are    2 irreducible representations

     Representation     1      3 modes -  To be done

     Representation     2      3 modes -  To be done



     Alpha used in Ewald sum =   2.5000
     PHONON       :      0.30s CPU      0.44s WALL


     Electric Fields Calculation

      iter #   1 total cpu time :     1.1 secs   av.it.:   6.4
      thresh= 1.000E-02 alpha_mix =  0.700 |ddv_scf|^2 =  1.518E-07

      iter #   2 total cpu time :     1.5 secs   av.it.:  11.1
      thresh= 3.897E-05 alpha_mix =  0.700 |ddv_scf|^2 =  6.977E-09

      iter #   3 total cpu time :     1.9 secs   av.it.:  10.9
      thresh= 8.353E-06 alpha_mix =  0.700 |ddv_scf|^2 =  2.014E-10

      iter #   4 total cpu time :     2.3 secs   av.it.:  10.9
      thresh= 1.419E-06 alpha_mix =  0.700 |ddv_scf|^2 =  1.615E-12

      iter #   5 total cpu time :     2.6 secs   av.it.:  10.6
      thresh= 1.271E-07 alpha_mix =  0.700 |ddv_scf|^2 =  6.030E-16

     End of electric fields calculation

          Dielectric constant in cartesian axis 

          (      14.366602596       0.000000000       0.000000000 )
          (       0.000000000      14.366602596       0.000000000 )
          (       0.000000000       0.000000000      14.366602596 )

          Effective charges (d Force / dE) in cartesian axis without acoustic sum rule applied (asr)

           atom      1   Si Mean Z*:       -0.08521
      Ex  (       -0.08521       -0.00000       -0.00000 )
      Ey  (       -0.00000       -0.08521        0.00000 )
      Ez  (       -0.00000        0.00000       -0.08521 )
           atom      2   Si Mean Z*:       -0.08521
      Ex  (       -0.08521       -0.00000       -0.00000 )
      Ey  (       -0.00000       -0.08521        0.00000 )
      Ez  (       -0.00000        0.00000       -0.08521 )

          Effective charges Sum: Mean:       -0.17042
             -0.17042       -0.00000       -0.00000
             -0.00000       -0.17042        0.00000
             -0.00000        0.00000       -0.17042

          Effective charges (d Force / dE) in cartesian axis with asr applied: 
           atom      1   Si Mean Z*:        0.00000
      E*x (       -0.00000        0.00000        0.00000 )
      E*y (        0.00000        0.00000        0.00000 )
      E*z (        0.00000        0.00000        0.00000 )
           atom      2   Si Mean Z*:       -0.00000
      E*x (        0.00000       -0.00000       -0.00000 )
      E*y (       -0.00000        0.00000       -0.00000 )
      E*z (       -0.00000       -0.00000       -0.00000 )


     Representation #   1 modes #   1   2   3

     Self-consistent Calculation

      iter #   1 total cpu time :     3.2 secs   av.it.:   5.4
      thresh= 1.000E-02 alpha_mix =  0.700 |ddv_scf|^2 =  3.113E-08

      iter #   2 total cpu time :     3.6 secs   av.it.:  10.7
      thresh= 1.764E-05 alpha_mix =  0.700 |ddv_scf|^2 =  1.889E-09

      iter #   3 total cpu time :     4.1 secs   av.it.:  10.7
      thresh= 4.346E-06 alpha_mix =  0.700 |ddv_scf|^2 =  9.825E-11

      iter #   4 total cpu time :     4.5 secs   av.it.:  10.3
      thresh= 9.912E-07 alpha_mix =  0.700 |ddv_scf|^2 =  1.476E-13

      iter #   5 total cpu time :     4.8 secs   av.it.:  11.2
      thresh= 3.842E-08 alpha_mix =  0.700 |ddv_scf|^2 =  2.064E-15

     End of self-consistent calculation

     Convergence has been achieved 


     Representation #   2 modes #   4   5   6

     Self-consistent Calculation

      iter #   1 total cpu time :     5.3 secs   av.it.:   5.7
      thresh= 1.000E-02 alpha_mix =  0.700 |ddv_scf|^2 =  2.905E-08

      iter #   2 total cpu time :     5.7 secs   av.it.:  10.8
      thresh= 1.704E-05 alpha_mix =  0.700 |ddv_scf|^2 =  2.024E-09

      iter #   3 total cpu time :     6.2 secs   av.it.:  10.8
      thresh= 4.499E-06 alpha_mix =  0.700 |ddv_scf|^2 =  9.323E-11

      iter #   4 total cpu time :     6.6 secs   av.it.:  10.9
      thresh= 9.656E-07 alpha_mix =  0.700 |ddv_scf|^2 =  2.403E-13

      iter #   5 total cpu time :     6.9 secs   av.it.:  10.9
      thresh= 4.902E-08 alpha_mix =  0.700 |ddv_scf|^2 =  5.978E-16

     End of self-consistent calculation

     Convergence has been achieved 
 
     Number of q in the star =    1
     List of q in the star:
          1   0.000000000   0.000000000   0.000000000

          Dielectric constant in cartesian axis 

          (      14.366602596       0.000000000       0.000000000 )
          (       0.000000000      14.366602596       0.000000000 )
          (       0.000000000       0.000000000      14.366602596 )

          Effective charges (d Force / dE) in cartesian axis without acoustic sum rule applied (asr)

           atom      1   Si Mean Z*:       -0.08521
      Ex  (       -0.08521       -0.00000       -0.00000 )
      Ey  (       -0.00000       -0.08521        0.00000 )
      Ez  (       -0.00000        0.00000       -0.08521 )
           atom      2   Si Mean Z*:       -0.08521
      Ex  (       -0.08521       -0.00000       -0.00000 )
      Ey  (       -0.00000       -0.08521        0.00000 )
      Ez  (       -0.00000        0.00000       -0.08521 )

          Effective charges Sum: Mean:       -0.17042
             -0.17042       -0.00000       -0.00000
             -0.00000       -0.17042        0.00000
             -0.00000        0.00000       -0.17042

          Effective charges (d Force / dE) in cartesian axis with asr applied: 
           atom      1   Si Mean Z*:        0.00000
      E*x (       -0.00000        0.00000        0.00000 )
      E*y (        0.00000        0.00000        0.00000 )
      E*z (        0.00000        0.00000        0.00000 )
           atom      2   Si Mean Z*:       -0.00000
      E*x (        0.00000       -0.00000       -0.00000 )
      E*y (       -0.00000        0.00000       -0.00000 )
      E*z (       -0.00000       -0.00000       -0.00000 )

          Effective charges (d P / du) in cartesian axis 

           atom      1   Si 
      Px  (       -0.08527        0.00000        0.00000 )
      Py  (        0.00000       -0.08527       -0.00000 )
      Pz  (        0.00000       -0.00000       -0.08527 )
           atom      2   Si 
      Px  (       -0.08527        0.00000        0.00000 )
      Py  (        0.00000       -0.08527        0.00000 )
      Pz  (        0.00000       -0.00000       -0.08527 )

     Diagonalizing the dynamical matrix

     q = (    0.000000000   0.000000000   0.000000000 ) 

 **************************************************************************
     freq (    1) =      -0.586485 [THz] =     -19.563044 [cm-1]
     freq (    2) =      -0.586485 [THz] =     -19.563044 [cm-1]
     freq (    3) =      -0.586485 [THz] =     -19.563044 [cm-1]
     freq (    4) =      15.265347 [THz] =     509.197154 [cm-1]
     freq (    5) =      15.265347 [THz] =     509.197154 [cm-1]
     freq (    6) =      15.265347 [THz] =     509.197154 [cm-1]
 **************************************************************************

     Mode symmetry, O_h (m-3m)  point group:

     freq (   1-   3) =        -19.6  [cm-1]   --> T_1u G_15  G_4- I  
     freq (   4-   6) =        509.2  [cm-1]   --> T_2g G_25' G_5+ R  

     Calculation of q =    0.5000000  -0.5000000   0.5000000
 
     Parallelization info
     --------------------
     sticks:   dense  smooth     PW     G-vecs:    dense   smooth      PW
     Min          71      71     25                 1407     1407     281
     Max          72      72     26                 1410     1410     283
     Sum         859     859    301                16889    16889    3383
 
     Using Slab Decomposition
 

     Title: 
     default                                                                    


     bravais-lattice index     =            2
     lattice parameter (alat)  =      10.2672  a.u.
     unit-cell volume          =     270.5802 (a.u.)^3
     number of atoms/cell      =            2
     number of atomic types    =            1
     number of electrons       =         8.00
     number of Kohn-Sham states=            4
     kinetic-energy cutoff     =      60.0000  Ry
     charge density cutoff     =     240.0000  Ry
     Exchange-correlation= PBESOL
                           (   1   4  10   8   0   0   0)

     celldm(1)=  10.267200  celldm(2)=   0.000000  celldm(3)=   0.000000
     celldm(4)=   0.000000  celldm(5)=   0.000000  celldm(6)=   0.000000

     crystal axes: (cart. coord. in units of alat)
               a(1) = (  -0.500000   0.000000   0.500000 )  
               a(2) = (   0.000000   0.500000   0.500000 )  
               a(3) = (  -0.500000   0.500000   0.000000 )  

     reciprocal axes: (cart. coord. in units 2 pi/alat)
               b(1) = ( -1.000000 -1.000000  1.000000 )  
               b(2) = (  1.000000  1.000000  1.000000 )  
               b(3) = ( -1.000000  1.000000 -1.000000 )  


     PseudoPot. # 1 for Si read from file:
     ../pseudo/Si.pbesol-n-rrkjus_psl.1.0.0.UPF
     MD5 check sum: c4212819de858c94c3a1644338846ac9
     Pseudo is Ultrasoft + core correction, Zval =  4.0
     Generated using "atomic" code by A. Dal Corso  v.6.0 svn rev. 13079
     Using radial grid of 1141 points,  6 beta functions with: 
                l(1) =   0
                l(2) =   0
                l(3) =   1
                l(4) =   1
                l(5) =   2
                l(6) =   2
     Q(r) pseudized with 0 coefficients 


     atomic species   valence    mass     pseudopotential
        Si             4.00    28.08550     Si( 1.00)

     48 Sym. Ops., with inversion, found



   Cartesian axes

     site n.     atom                  positions (alat units)
         1           Si  tau(   1) = (  -0.2500000   0.2500000   0.2500000  )
         2           Si  tau(   2) = (  -0.5000000   0.5000000   0.5000000  )

     number of k points=    60
                       cart. coord. in units 2pi/alat
        k(    1) = (  -0.1250000   0.1250000   0.1250000), wk =   0.0468750
        k(    2) = (   0.3750000  -0.3750000   0.6250000), wk =   0.0000000
        k(    3) = (  -0.3750000   0.3750000  -0.1250000), wk =   0.0468750
        k(    4) = (   0.1250000  -0.1250000   0.3750000), wk =   0.0000000
        k(    5) = (   0.3750000  -0.3750000   0.6250000), wk =   0.0468750
        k(    6) = (   0.8750000  -0.8750000   1.1250000), wk =   0.0000000
        k(    7) = (   0.1250000  -0.1250000   0.3750000), wk =   0.0468750
        k(    8) = (   0.6250000  -0.6250000   0.8750000), wk =   0.0000000
        k(    9) = (  -0.1250000   0.6250000   0.1250000), wk =   0.0937500
        k(   10) = (   0.3750000   0.1250000   0.6250000), wk =   0.0000000
        k(   11) = (   0.6250000  -0.1250000   0.8750000), wk =   0.0937500
        k(   12) = (   1.1250000  -0.6250000   1.3750000), wk =   0.0000000
        k(   13) = (   0.3750000   0.1250000   0.6250000), wk =   0.0937500
        k(   14) = (   0.8750000  -0.3750000   1.1250000), wk =   0.0000000
        k(   15) = (  -0.1250000  -0.8750000   0.1250000), wk =   0.0937500
        k(   16) = (   0.3750000  -1.3750000   0.6250000), wk =   0.0000000
        k(   17) = (  -0.3750000   0.3750000   0.3750000), wk =   0.0468750
        k(   18) = (   0.1250000  -0.1250000   0.8750000), wk =   0.0000000
        k(   19) = (   0.3750000  -0.3750000   1.1250000), wk =   0.0468750
        k(   20) = (   0.8750000  -0.8750000   1.6250000), wk =   0.0000000
        k(   21) = (   0.1250000  -0.1250000   0.1250000), wk =   0.0156250
        k(   22) = (   0.6250000  -0.6250000   0.6250000), wk =   0.0000000
        k(   23) = (  -0.1250000  -0.3750000   0.3750000), wk =   0.0468750
        k(   24) = (   0.3750000  -0.8750000   0.8750000), wk =   0.0000000
        k(   25) = (   0.3750000   0.3750000   0.1250000), wk =   0.0937500
        k(   26) = (   0.8750000  -0.1250000   0.6250000), wk =   0.0000000
        k(   27) = (   0.6250000   0.3750000  -0.3750000), wk =   0.0468750
        k(   28) = (   1.1250000  -0.1250000   0.1250000), wk =   0.0000000
        k(   29) = (  -0.3750000  -0.3750000  -0.6250000), wk =   0.0937500
        k(   30) = (   0.1250000  -0.8750000  -0.1250000), wk =   0.0000000
        k(   31) = (   0.3750000   0.1250000  -0.1250000), wk =   0.0468750
        k(   32) = (   0.8750000  -0.3750000   0.3750000), wk =   0.0000000
        k(   33) = (  -0.1250000  -0.1250000  -0.3750000), wk =   0.0937500
        k(   34) = (   0.3750000  -0.6250000   0.1250000), wk =   0.0000000
        k(   35) = (   0.1250000  -0.6250000   0.1250000), wk =   0.0468750
        k(   36) = (   0.6250000  -1.1250000   0.6250000), wk =   0.0000000
        k(   37) = (   0.1250000   0.6250000   0.1250000), wk =   0.0468750
        k(   38) = (   0.6250000   0.1250000   0.6250000), wk =   0.0000000
        k(   39) = (   0.8750000   0.1250000  -0.6250000), wk =   0.0937500
        k(   40) = (   1.3750000  -0.3750000  -0.1250000), wk =   0.0000000
        k(   41) = (  -0.6250000  -0.1250000  -0.8750000), wk =   0.0937500
        k(   42) = (  -0.1250000  -0.6250000  -0.3750000), wk =   0.0000000
        k(   43) = (   0.8750000  -0.1250000  -0.6250000), wk =   0.0937500
        k(   44) = (   1.3750000  -0.6250000  -0.1250000), wk =   0.0000000
        k(   45) = (   0.6250000  -0.1250000  -0.3750000), wk =   0.0937500
        k(   46) = (   1.1250000  -0.6250000   0.1250000), wk =   0.0000000
        k(   47) = (  -0.3750000   0.1250000  -0.6250000), wk =   0.0937500
        k(   48) = (   0.1250000  -0.3750000  -0.1250000), wk =   0.0000000
        k(   49) = (   0.6250000   0.1250000  -0.3750000), wk =   0.0937500
        k(   50) = (   1.1250000  -0.3750000   0.1250000), wk =   0.0000000
        k(   51) = (   0.1250000   0.8750000   0.1250000), wk =   0.0468750
        k(   52) = (   0.6250000   0.3750000   0.6250000), wk =   0.0000000
        k(   53) = (   0.1250000  -0.8750000   0.1250000), wk =   0.0468750
        k(   54) = (   0.6250000  -1.3750000   0.6250000), wk =   0.0000000
        k(   55) = (   0.3750000  -0.3750000   0.3750000), wk =   0.0156250
        k(   56) = (   0.8750000  -0.8750000   0.8750000), wk =   0.0000000
        k(   57) = (   1.1250000   0.3750000  -0.3750000), wk =   0.0468750
        k(   58) = (   1.6250000  -0.1250000   0.1250000), wk =   0.0000000
        k(   59) = (  -0.3750000  -0.3750000  -1.1250000), wk =   0.0937500
        k(   60) = (   0.1250000  -0.8750000  -0.6250000), wk =   0.0000000

     Dense  grid:    16889 G-vectors     FFT dimensions: (  36,  36,  36)

     Estimated max dynamical RAM per process >       5.90 MB

     Estimated total dynamical RAM >      70.79 MB

     The potential is recalculated from file :
     ./out/_ph0/Si.save/charge-density

     Starting wfcs are    8 atomic wfcs

     Band Structure Calculation
     Davidson diagonalization with overlap

     ethr =  1.25E-10,  avg # of iterations = 13.6

     total cpu time spent up to now is        0.5 secs

     End of band structure calculation

          k =-0.1250 0.1250 0.1250 (  2112 PWs)   bands (ev):

    -5.6321   4.5300   5.8510   5.8510

          k = 0.3750-0.3750 0.6250 (  2122 PWs)   bands (ev):

    -3.4066  -0.6389   3.8406   4.5715

          k =-0.3750 0.3750-0.1250 (  2117 PWs)   bands (ev):

    -4.5830   1.4967   3.8051   5.3667

          k = 0.1250-0.1250 0.3750 (  2117 PWs)   bands (ev):

    -5.0934   2.9038   4.8122   4.8857

          k = 0.3750-0.3750 0.6250 (  2122 PWs)   bands (ev):

    -3.4066  -0.6389   3.8406   4.5715

          k = 0.8750-0.8750 1.1250 (  2112 PWs)   bands (ev):

    -5.6321   4.5300   5.8510   5.8510

          k = 0.1250-0.1250 0.3750 (  2117 PWs)   bands (ev):

    -5.0934   2.9038   4.8122   4.8857

          k = 0.6250-0.6250 0.8750 (  2117 PWs)   bands (ev):

    -4.5830   1.4967   3.8051   5.3667

          k =-0.1250 0.6250 0.1250 (  2120 PWs)   bands (ev):

    -4.0405   1.1946   3.4426   3.9185

          k = 0.3750 0.1250 0.6250 (  2117 PWs)   bands (ev):

    -3.6116   0.2844   2.7856   4.1944

          k = 0.6250-0.1250 0.8750 (  2142 PWs)   bands (ev):

    -2.3559  -0.7975   2.0335   3.1497

          k = 1.1250-0.6250 1.3750 (  2117 PWs)   bands (ev):

    -4.5830   1.4967   3.8051   5.3667

          k = 0.3750 0.1250 0.6250 (  2117 PWs)   bands (ev):

    -3.6116   0.2844   2.7856   4.1944

          k = 0.8750-0.3750 1.1250 (  2120 PWs)   bands (ev):

    -4.0405   1.1946   3.4426   3.9185

          k =-0.1250-0.8750 0.1250 (  2127 PWs)   bands (ev):

    -2.5366  -0.6936   2.6694   3.4423

          k = 0.3750-1.3750 0.6250 (  2122 PWs)   bands (ev):

    -3.4066  -0.6389   3.8406   4.5715

          k =-0.3750 0.3750 0.3750 (  2126 PWs)   bands (ev):

    -4.1368   0.1647   5.0516   5.0516

          k = 0.1250-0.1250 0.8750 (  2127 PWs)   bands (ev):

    -2.5366  -0.6936   2.6694   3.4423

          k = 0.3750-0.3750 1.1250 (  2125 PWs)   bands (ev):

    -2.9016  -0.5174   2.1052   4.2442

          k = 0.8750-0.8750 1.6250 (  2120 PWs)   bands (ev):

    -4.0405   1.1946   3.4426   3.9185

          k = 0.1250-0.1250 0.1250 (  2112 PWs)   bands (ev):

    -5.6321   4.5300   5.8510   5.8510

          k = 0.6250-0.6250 0.6250 (  2126 PWs)   bands (ev):

    -4.1368   0.1647   5.0516   5.0516

          k =-0.1250-0.3750 0.3750 (  2117 PWs)   bands (ev):

    -4.5830   1.4967   3.8051   5.3667

          k = 0.3750-0.8750 0.8750 (  2120 PWs)   bands (ev):

    -4.0405   1.1946   3.4426   3.9185

          k = 0.3750 0.3750 0.1250 (  2117 PWs)   bands (ev):

    -4.5830   1.4967   3.8051   5.3667

          k = 0.8750-0.1250 0.6250 (  2142 PWs)   bands (ev):

    -2.3559  -0.7975   2.0335   3.1497

          k = 0.6250 0.3750-0.3750 (  2122 PWs)   bands (ev):

    -3.4066  -0.6389   3.8406   4.5715

          k = 1.1250-0.1250 0.1250 (  2127 PWs)   bands (ev):

    -2.5366  -0.6936   2.6694   3.4423

          k =-0.3750-0.3750-0.6250 (  2122 PWs)   bands (ev):

    -3.4066  -0.6389   3.8406   4.5715

          k = 0.1250-0.8750-0.1250 (  2127 PWs)   bands (ev):

    -2.5366  -0.6936   2.6694   3.4423

          k = 0.3750 0.1250-0.1250 (  2117 PWs)   bands (ev):

    -5.0934   2.9038   4.8122   4.8857

          k = 0.8750-0.3750 0.3750 (  2125 PWs)   bands (ev):

    -2.9016  -0.5174   2.1052   4.2442

          k =-0.1250-0.1250-0.3750 (  2117 PWs)   bands (ev):

    -5.0934   2.9038   4.8122   4.8857

          k = 0.3750-0.6250 0.1250 (  2117 PWs)   bands (ev):

    -3.6116   0.2844   2.7856   4.1944

          k = 0.1250-0.6250 0.1250 (  2120 PWs)   bands (ev):

    -4.0405   1.1946   3.4426   3.9185

          k = 0.6250-1.1250 0.6250 (  2117 PWs)   bands (ev):

    -4.5830   1.4967   3.8051   5.3667

          k = 0.1250 0.6250 0.1250 (  2120 PWs)   bands (ev):

    -4.0405   1.1946   3.4426   3.9185

          k = 0.6250 0.1250 0.6250 (  2125 PWs)   bands (ev):

    -2.9016  -0.5174   2.1052   4.2442

          k = 0.8750 0.1250-0.6250 (  2142 PWs)   bands (ev):

    -2.3559  -0.7975   2.0335   3.1497

          k = 1.3750-0.3750-0.1250 (  2117 PWs)   bands (ev):

    -3.6116   0.2844   2.7856   4.1944

          k =-0.6250-0.1250-0.8750 (  2142 PWs)   bands (ev):

    -2.3559  -0.7975   2.0335   3.1497

          k =-0.1250-0.6250-0.3750 (  2117 PWs)   bands (ev):

    -3.6116   0.2844   2.7856   4.1944

          k = 0.8750-0.1250-0.6250 (  2142 PWs)   bands (ev):

    -2.3559  -0.7975   2.0335   3.1497

          k = 1.3750-0.6250-0.1250 (  2125 PWs)   bands (ev):

    -2.9016  -0.5174   2.1052   4.2442

          k = 0.6250-0.1250-0.3750 (  2117 PWs)   bands (ev):

    -3.6116   0.2844   2.7856   4.1944

          k = 1.1250-0.6250 0.1250 (  2142 PWs)   bands (ev):

    -2.3559  -0.7975   2.0335   3.1497

          k =-0.3750 0.1250-0.6250 (  2117 PWs)   bands (ev):

    -3.6116   0.2844   2.7856   4.1944

          k = 0.1250-0.3750-0.1250 (  2117 PWs)   bands (ev):

    -5.0934   2.9038   4.8122   4.8857

          k = 0.6250 0.1250-0.3750 (  2117 PWs)   bands (ev):

    -3.6116   0.2844   2.7856   4.1944

          k = 1.1250-0.3750 0.1250 (  2142 PWs)   bands (ev):

    -2.3559  -0.7975   2.0335   3.1497

          k = 0.1250 0.8750 0.1250 (  2127 PWs)   bands (ev):

    -2.5366  -0.6936   2.6694   3.4423

          k = 0.6250 0.3750 0.6250 (  2122 PWs)   bands (ev):

    -3.4066  -0.6389   3.8406   4.5715

          k = 0.1250-0.8750 0.1250 (  2127 PWs)   bands (ev):

    -2.5366  -0.6936   2.6694   3.4423

          k = 0.6250-1.3750 0.6250 (  2126 PWs)   bands (ev):

    -4.1368   0.1647   5.0516   5.0516

          k = 0.3750-0.3750 0.3750 (  2126 PWs)   bands (ev):

    -4.1368   0.1647   5.0516   5.0516

          k = 0.8750-0.8750 0.8750 (  2112 PWs)   bands (ev):

    -5.6321   4.5300   5.8510   5.8510

          k = 1.1250 0.3750-0.3750 (  2125 PWs)   bands (ev):

    -2.9016  -0.5174   2.1052   4.2442

          k = 1.6250-0.1250 0.1250 (  2117 PWs)   bands (ev):

    -5.0934   2.9038   4.8122   4.8857

          k =-0.3750-0.3750-1.1250 (  2125 PWs)   bands (ev):

    -2.9016  -0.5174   2.1052   4.2442

          k = 0.1250-0.8750-0.6250 (  2142 PWs)   bands (ev):

    -2.3559  -0.7975   2.0335   3.1497

     highest occupied level (ev):     5.8510

     Writing config to output data dir ./out/_ph0/Si.save/

     default                                                                    

     bravais-lattice index     =            2
     lattice parameter (alat)  =      10.2672  a.u.
     unit-cell volume          =     270.5802 (a.u.)^3
     number of atoms/cell      =            2
     number of atomic types    =            1
     kinetic-energy cut-off    =      60.0000  Ry
     charge density cut-off    =     240.0000  Ry
     convergence threshold     =      1.0E-14
     beta                      =       0.7000
     number of iterations used =            4
     Exchange-correlation= PBESOL
                           (   1   4  10   8   0   0   0)


     celldm(1)=   10.26720  celldm(2)=    0.00000  celldm(3)=    0.00000
     celldm(4)=    0.00000  celldm(5)=    0.00000  celldm(6)=    0.00000

     crystal axes: (cart. coord. in units of alat)
               a(1) = ( -0.5000  0.0000  0.5000 )  
               a(2) = (  0.0000  0.5000  0.5000 )  
               a(3) = ( -0.5000  0.5000  0.0000 )  

     reciprocal axes: (cart. coord. in units 2 pi/alat)
               b(1) = ( -1.0000 -1.0000  1.0000 )  
               b(2) = (  1.0000  1.0000  1.0000 )  
               b(3) = ( -1.0000  1.0000 -1.0000 )  


     Atoms inside the unit cell: 

     Cartesian axes

     site n.  atom      mass           positions (alat units)
        1     Si  28.0855   tau(    1) = (   -0.25000    0.25000    0.25000  )
        2     Si  28.0855   tau(    2) = (   -0.50000    0.50000    0.50000  )

     Computing dynamical matrix for 
                    q = (   0.5000000  -0.5000000   0.5000000 )
 
     13 Sym.Ops. (with q -> -q+G )


     G cutoff =  640.8488  (   1410 G-vectors)     FFT grid: ( 36, 36, 36)
     number of k points=    60

     PseudoPot. # 1 for Si read from file:
     ../pseudo/Si.pbesol-n-rrkjus_psl.1.0.0.UPF
     MD5 check sum: c4212819de858c94c3a1644338846ac9
     Pseudo is Ultrasoft + core correction, Zval =  4.0
     Generated using "atomic" code by A. Dal Corso  v.6.0 svn rev. 13079
     Using radial grid of 1141 points,  6 beta functions with: 
                l(1) =   0
                l(2) =   0
                l(3) =   1
                l(4) =   1
                l(5) =   2
                l(6) =   2
     Q(r) pseudized with 0 coefficients 



     Atomic displacements:
     There are    4 irreducible representations

     Representation     1      1 modes -  To be done

     Representation     2      1 modes -  To be done

     Representation     3      2 modes -  To be done

     Representation     4      2 modes -  To be done



     Alpha used in Ewald sum =   2.5000
     PHONON       :      6.29s CPU      8.59s WALL



     Representation #   1 mode #   1

     Self-consistent Calculation

      iter #   1 total cpu time :     8.7 secs   av.it.:   5.2
      thresh= 1.000E-02 alpha_mix =  0.700 |ddv_scf|^2 =  4.441E-06

      iter #   2 total cpu time :     9.0 secs   av.it.:   9.2
      thresh= 2.107E-04 alpha_mix =  0.700 |ddv_scf|^2 =  4.094E-06

      iter #   3 total cpu time :     9.3 secs   av.it.:   8.7
      thresh= 2.023E-04 alpha_mix =  0.700 |ddv_scf|^2 =  5.192E-09

      iter #   4 total cpu time :     9.5 secs   av.it.:   9.1
      thresh= 7.205E-06 alpha_mix =  0.700 |ddv_scf|^2 =  2.505E-11

      iter #   5 total cpu time :     9.7 secs   av.it.:   9.1
      thresh= 5.005E-07 alpha_mix =  0.700 |ddv_scf|^2 =  3.847E-13

      iter #   6 total cpu time :     9.9 secs   av.it.:   9.2
      thresh= 6.202E-08 alpha_mix =  0.700 |ddv_scf|^2 =  7.455E-15

     End of self-consistent calculation

     Convergence has been achieved 


     Representation #   2 mode #   2

     Self-consistent Calculation

      iter #   1 total cpu time :    10.1 secs   av.it.:   6.3
      thresh= 1.000E-02 alpha_mix =  0.700 |ddv_scf|^2 =  6.159E-05

      iter #   2 total cpu time :    10.4 secs   av.it.:   9.3
      thresh= 7.848E-04 alpha_mix =  0.700 |ddv_scf|^2 =  1.960E-04

      iter #   3 total cpu time :    10.5 secs   av.it.:   8.3
      thresh= 1.400E-03 alpha_mix =  0.700 |ddv_scf|^2 =  1.845E-08

      iter #   4 total cpu time :    10.8 secs   av.it.:   9.3
      thresh= 1.358E-05 alpha_mix =  0.700 |ddv_scf|^2 =  1.081E-09

      iter #   5 total cpu time :    11.0 secs   av.it.:   9.6
      thresh= 3.288E-06 alpha_mix =  0.700 |ddv_scf|^2 =  1.878E-11

      iter #   6 total cpu time :    11.3 secs   av.it.:   9.6
      thresh= 4.333E-07 alpha_mix =  0.700 |ddv_scf|^2 =  6.166E-13

      iter #   7 total cpu time :    11.4 secs   av.it.:   9.1
      thresh= 7.852E-08 alpha_mix =  0.700 |ddv_scf|^2 =  5.483E-16

     End of self-consistent calculation

     Convergence has been achieved 


     Representation #   3 modes #   3   4

     Self-consistent Calculation

      iter #   1 total cpu time :    11.8 secs   av.it.:   5.5
      thresh= 1.000E-02 alpha_mix =  0.700 |ddv_scf|^2 =  1.506E-07

      iter #   2 total cpu time :    12.3 secs   av.it.:  10.7
      thresh= 3.881E-05 alpha_mix =  0.700 |ddv_scf|^2 =  1.298E-08

      iter #   3 total cpu time :    12.7 secs   av.it.:  10.4
      thresh= 1.139E-05 alpha_mix =  0.700 |ddv_scf|^2 =  6.376E-10

      iter #   4 total cpu time :    13.2 secs   av.it.:   9.9
      thresh= 2.525E-06 alpha_mix =  0.700 |ddv_scf|^2 =  3.743E-13

      iter #   5 total cpu time :    13.6 secs   av.it.:  10.6
      thresh= 6.118E-08 alpha_mix =  0.700 |ddv_scf|^2 =  5.169E-15

     End of self-consistent calculation

     Convergence has been achieved 


     Representation #   4 modes #   5   6

     Self-consistent Calculation

      iter #   1 total cpu time :    14.0 secs   av.it.:   5.2
      thresh= 1.000E-02 alpha_mix =  0.700 |ddv_scf|^2 =  5.222E-08

      iter #   2 total cpu time :    14.4 secs   av.it.:  10.2
      thresh= 2.285E-05 alpha_mix =  0.700 |ddv_scf|^2 =  3.636E-09

      iter #   3 total cpu time :    14.7 secs   av.it.:  10.0
      thresh= 6.030E-06 alpha_mix =  0.700 |ddv_scf|^2 =  4.443E-11

      iter #   4 total cpu time :    15.1 secs   av.it.:  10.3
      thresh= 6.665E-07 alpha_mix =  0.700 |ddv_scf|^2 =  4.682E-13

      iter #   5 total cpu time :    15.5 secs   av.it.:  10.5
      thresh= 6.842E-08 alpha_mix =  0.700 |ddv_scf|^2 =  6.064E-15

     End of self-consistent calculation

     Convergence has been achieved 
 
     Number of q in the star =    4
     List of q in the star:
          1   0.500000000  -0.500000000   0.500000000
          2   0.500000000   0.500000000  -0.500000000
          3  -0.500000000  -0.500000000  -0.500000000
          4   0.500000000  -0.500000000  -0.500000000

     Diagonalizing the dynamical matrix

     q = (    0.500000000  -0.500000000   0.500000000 ) 

 **************************************************************************
     freq (    1) =       3.063662 [THz] =     102.192751 [cm-1]
     freq (    2) =       3.063662 [THz] =     102.192751 [cm-1]
     freq (    3) =      11.051549 [THz] =     368.640001 [cm-1]
     freq (    4) =      12.250369 [THz] =     408.628324 [cm-1]
     freq (    5) =      14.557668 [THz] =     485.591531 [cm-1]
     freq (    6) =      14.557668 [THz] =     485.591531 [cm-1]
 **************************************************************************

     Calculation of q =    0.0000000  -1.0000000   0.0000000
 
     Parallelization info
     --------------------
     sticks:   dense  smooth     PW     G-vecs:    dense   smooth      PW
     Min          71      71     24                 1407     1407     267
     Max          72      72     26                 1410     1410     269
     Sum         859     859    295                16889    16889    3215
 
     Using Slab Decomposition
 

     Title: 
     default                                                                    


     bravais-lattice index     =            2
     lattice parameter (alat)  =      10.2672  a.u.
     unit-cell volume          =     270.5802 (a.u.)^3
     number of atoms/cell      =            2
     number of atomic types    =            1
     number of electrons       =         8.00
     number of Kohn-Sham states=            4
     kinetic-energy cutoff     =      60.0000  Ry
     charge density cutoff     =     240.0000  Ry
     Exchange-correlation= PBESOL
                           (   1   4  10   8   0   0   0)

     celldm(1)=  10.267200  celldm(2)=   0.000000  celldm(3)=   0.000000
     celldm(4)=   0.000000  celldm(5)=   0.000000  celldm(6)=   0.000000

     crystal axes: (cart. coord. in units of alat)
               a(1) = (  -0.500000   0.000000   0.500000 )  
               a(2) = (   0.000000   0.500000   0.500000 )  
               a(3) = (  -0.500000   0.500000   0.000000 )  

     reciprocal axes: (cart. coord. in units 2 pi/alat)
               b(1) = ( -1.000000 -1.000000  1.000000 )  
               b(2) = (  1.000000  1.000000  1.000000 )  
               b(3) = ( -1.000000  1.000000 -1.000000 )  


     PseudoPot. # 1 for Si read from file:
     ../pseudo/Si.pbesol-n-rrkjus_psl.1.0.0.UPF
     MD5 check sum: c4212819de858c94c3a1644338846ac9
     Pseudo is Ultrasoft + core correction, Zval =  4.0
     Generated using "atomic" code by A. Dal Corso  v.6.0 svn rev. 13079
     Using radial grid of 1141 points,  6 beta functions with: 
                l(1) =   0
                l(2) =   0
                l(3) =   1
                l(4) =   1
                l(5) =   2
                l(6) =   2
     Q(r) pseudized with 0 coefficients 


     atomic species   valence    mass     pseudopotential
        Si             4.00    28.08550     Si( 1.00)

     48 Sym. Ops., with inversion, found



   Cartesian axes

     site n.     atom                  positions (alat units)
         1           Si  tau(   1) = (  -0.2500000   0.2500000   0.2500000  )
         2           Si  tau(   2) = (  -0.5000000   0.5000000   0.5000000  )

     number of k points=    40
                       cart. coord. in units 2pi/alat
        k(    1) = (  -0.1250000   0.1250000   0.1250000), wk =   0.0625000
        k(    2) = (  -0.1250000  -0.8750000   0.1250000), wk =   0.0000000
        k(    3) = (  -0.3750000   0.3750000  -0.1250000), wk =   0.1250000
        k(    4) = (  -0.3750000  -0.6250000  -0.1250000), wk =   0.0000000
        k(    5) = (   0.3750000  -0.3750000   0.6250000), wk =   0.1250000
        k(    6) = (   0.3750000  -1.3750000   0.6250000), wk =   0.0000000
        k(    7) = (   0.1250000  -0.1250000   0.3750000), wk =   0.1250000
        k(    8) = (   0.1250000  -1.1250000   0.3750000), wk =   0.0000000
        k(    9) = (  -0.1250000   0.6250000   0.1250000), wk =   0.0625000
        k(   10) = (  -0.1250000  -0.3750000   0.1250000), wk =   0.0000000
        k(   11) = (   0.6250000  -0.1250000   0.8750000), wk =   0.1250000
        k(   12) = (   0.6250000  -1.1250000   0.8750000), wk =   0.0000000
        k(   13) = (   0.3750000   0.1250000   0.6250000), wk =   0.1250000
        k(   14) = (   0.3750000  -0.8750000   0.6250000), wk =   0.0000000
        k(   15) = (  -0.1250000  -0.8750000   0.1250000), wk =   0.0625000
        k(   16) = (  -0.1250000  -1.8750000   0.1250000), wk =   0.0000000
        k(   17) = (  -0.3750000   0.3750000   0.3750000), wk =   0.0625000
        k(   18) = (  -0.3750000  -0.6250000   0.3750000), wk =   0.0000000
        k(   19) = (   0.3750000  -0.3750000   1.1250000), wk =   0.1250000
        k(   20) = (   0.3750000  -1.3750000   1.1250000), wk =   0.0000000
        k(   21) = (   0.3750000  -0.1250000  -0.3750000), wk =   0.0625000
        k(   22) = (   0.3750000  -1.1250000  -0.3750000), wk =   0.0000000
        k(   23) = (  -0.3750000   0.6250000   0.3750000), wk =   0.0625000
        k(   24) = (  -0.3750000  -0.3750000   0.3750000), wk =   0.0000000
        k(   25) = (  -0.1250000   0.3750000   0.1250000), wk =   0.0625000
        k(   26) = (  -0.1250000  -0.6250000   0.1250000), wk =   0.0000000
        k(   27) = (   0.6250000   0.1250000  -0.1250000), wk =   0.1250000
        k(   28) = (   0.6250000  -0.8750000  -0.1250000), wk =   0.0000000
        k(   29) = (  -0.1250000   0.8750000   0.6250000), wk =   0.1250000
        k(   30) = (  -0.1250000  -0.1250000   0.6250000), wk =   0.0000000
        k(   31) = (   0.8750000   0.6250000  -0.1250000), wk =   0.1250000
        k(   32) = (   0.8750000  -0.3750000  -0.1250000), wk =   0.0000000
        k(   33) = (   0.1250000   0.6250000   0.3750000), wk =   0.1250000
        k(   34) = (   0.1250000  -0.3750000   0.3750000), wk =   0.0000000
        k(   35) = (   0.6250000   0.3750000   0.1250000), wk =   0.1250000
        k(   36) = (   0.6250000  -0.6250000   0.1250000), wk =   0.0000000
        k(   37) = (  -0.8750000   0.1250000  -0.1250000), wk =   0.1250000
        k(   38) = (  -0.8750000  -0.8750000  -0.1250000), wk =   0.0000000
        k(   39) = (  -0.3750000   1.1250000   0.3750000), wk =   0.0625000
        k(   40) = (  -0.3750000   0.1250000   0.3750000), wk =   0.0000000

     Dense  grid:    16889 G-vectors     FFT dimensions: (  36,  36,  36)

     Estimated max dynamical RAM per process >       5.91 MB

     Estimated total dynamical RAM >      70.86 MB

     The potential is recalculated from file :
     ./out/_ph0/Si.save/charge-density

     Starting wfcs are    8 atomic wfcs

     Band Structure Calculation
     Davidson diagonalization with overlap

     ethr =  1.25E-10,  avg # of iterations = 13.6

     total cpu time spent up to now is        1.0 secs

     End of band structure calculation

          k =-0.1250 0.1250 0.1250 (  2112 PWs)   bands (ev):

    -5.6321   4.5300   5.8510   5.8510

          k =-0.1250-0.8750 0.1250 (  2127 PWs)   bands (ev):

    -2.5366  -0.6936   2.6694   3.4423

          k =-0.3750 0.3750-0.1250 (  2117 PWs)   bands (ev):

    -4.5830   1.4967   3.8051   5.3667

          k =-0.3750-0.6250-0.1250 (  2117 PWs)   bands (ev):

    -3.6116   0.2844   2.7856   4.1944

          k = 0.3750-0.3750 0.6250 (  2122 PWs)   bands (ev):

    -3.4066  -0.6389   3.8406   4.5715

          k = 0.3750-1.3750 0.6250 (  2122 PWs)   bands (ev):

    -3.4066  -0.6389   3.8406   4.5715

          k = 0.1250-0.1250 0.3750 (  2117 PWs)   bands (ev):

    -5.0934   2.9038   4.8122   4.8857

          k = 0.1250-1.1250 0.3750 (  2142 PWs)   bands (ev):

    -2.3559  -0.7975   2.0335   3.1497

          k =-0.1250 0.6250 0.1250 (  2120 PWs)   bands (ev):

    -4.0405   1.1946   3.4426   3.9185

          k =-0.1250-0.3750 0.1250 (  2117 PWs)   bands (ev):

    -5.0934   2.9038   4.8122   4.8857

          k = 0.6250-0.1250 0.8750 (  2142 PWs)   bands (ev):

    -2.3559  -0.7975   2.0335   3.1497

          k = 0.6250-1.1250 0.8750 (  2117 PWs)   bands (ev):

    -5.0934   2.9038   4.8122   4.8857

          k = 0.3750 0.1250 0.6250 (  2117 PWs)   bands (ev):

    -3.6116   0.2844   2.7856   4.1944

          k = 0.3750-0.8750 0.6250 (  2117 PWs)   bands (ev):

    -3.6116   0.2844   2.7856   4.1944

          k =-0.1250-0.8750 0.1250 (  2127 PWs)   bands (ev):

    -2.5366  -0.6936   2.6694   3.4423

          k =-0.1250-1.8750 0.1250 (  2112 PWs)   bands (ev):

    -5.6321   4.5300   5.8510   5.8510

          k =-0.3750 0.3750 0.3750 (  2126 PWs)   bands (ev):

    -4.1368   0.1647   5.0516   5.0516

          k =-0.3750-0.6250 0.3750 (  2122 PWs)   bands (ev):

    -3.4066  -0.6389   3.8406   4.5715

          k = 0.3750-0.3750 1.1250 (  2125 PWs)   bands (ev):

    -2.9016  -0.5174   2.1052   4.2442

          k = 0.3750-1.3750 1.1250 (  2117 PWs)   bands (ev):

    -3.6116   0.2844   2.7856   4.1944

          k = 0.3750-0.1250-0.3750 (  2117 PWs)   bands (ev):

    -4.5830   1.4967   3.8051   5.3667

          k = 0.3750-1.1250-0.3750 (  2125 PWs)   bands (ev):

    -2.9016  -0.5174   2.1052   4.2442

          k =-0.3750 0.6250 0.3750 (  2122 PWs)   bands (ev):

    -3.4066  -0.6389   3.8406   4.5715

          k =-0.3750-0.3750 0.3750 (  2126 PWs)   bands (ev):

    -4.1368   0.1647   5.0516   5.0516

          k =-0.1250 0.3750 0.1250 (  2117 PWs)   bands (ev):

    -5.0934   2.9038   4.8122   4.8857

          k =-0.1250-0.6250 0.1250 (  2120 PWs)   bands (ev):

    -4.0405   1.1946   3.4426   3.9185

          k = 0.6250 0.1250-0.1250 (  2120 PWs)   bands (ev):

    -4.0405   1.1946   3.4426   3.9185

          k = 0.6250-0.8750-0.1250 (  2142 PWs)   bands (ev):

    -2.3559  -0.7975   2.0335   3.1497

          k =-0.1250 0.8750 0.6250 (  2142 PWs)   bands (ev):

    -2.3559  -0.7975   2.0335   3.1497

          k =-0.1250-0.1250 0.6250 (  2120 PWs)   bands (ev):

    -4.0405   1.1946   3.4426   3.9185

          k = 0.8750 0.6250-0.1250 (  2142 PWs)   bands (ev):

    -2.3559  -0.7975   2.0335   3.1497

          k = 0.8750-0.3750-0.1250 (  2142 PWs)   bands (ev):

    -2.3559  -0.7975   2.0335   3.1497

          k = 0.1250 0.6250 0.3750 (  2117 PWs)   bands (ev):

    -3.6116   0.2844   2.7856   4.1944

          k = 0.1250-0.3750 0.3750 (  2117 PWs)   bands (ev):

    -4.5830   1.4967   3.8051   5.3667

          k = 0.6250 0.3750 0.1250 (  2117 PWs)   bands (ev):

    -3.6116   0.2844   2.7856   4.1944

          k = 0.6250-0.6250 0.1250 (  2125 PWs)   bands (ev):

    -2.9016  -0.5174   2.1052   4.2442

          k =-0.8750 0.1250-0.1250 (  2127 PWs)   bands (ev):

    -2.5366  -0.6936   2.6694   3.4423

          k =-0.8750-0.8750-0.1250 (  2127 PWs)   bands (ev):

    -2.5366  -0.6936   2.6694   3.4423

          k =-0.3750 1.1250 0.3750 (  2125 PWs)   bands (ev):

    -2.9016  -0.5174   2.1052   4.2442

          k =-0.3750 0.1250 0.3750 (  2117 PWs)   bands (ev):

    -4.5830   1.4967   3.8051   5.3667

     highest occupied level (ev):     5.8510

     Writing config to output data dir ./out/_ph0/Si.save/

     default                                                                    

     bravais-lattice index     =            2
     lattice parameter (alat)  =      10.2672  a.u.
     unit-cell volume          =     270.5802 (a.u.)^3
     number of atoms/cell      =            2
     number of atomic types    =            1
     kinetic-energy cut-off    =      60.0000  Ry
     charge density cut-off    =     240.0000  Ry
     convergence threshold     =      1.0E-14
     beta                      =       0.7000
     number of iterations used =            4
     Exchange-correlation= PBESOL
                           (   1   4  10   8   0   0   0)


     celldm(1)=   10.26720  celldm(2)=    0.00000  celldm(3)=    0.00000
     celldm(4)=    0.00000  celldm(5)=    0.00000  celldm(6)=    0.00000

     crystal axes: (cart. coord. in units of alat)
               a(1) = ( -0.5000  0.0000  0.5000 )  
               a(2) = (  0.0000  0.5000  0.5000 )  
               a(3) = ( -0.5000  0.5000  0.0000 )  

     reciprocal axes: (cart. coord. in units 2 pi/alat)
               b(1) = ( -1.0000 -1.0000  1.0000 )  
               b(2) = (  1.0000  1.0000  1.0000 )  
               b(3) = ( -1.0000  1.0000 -1.0000 )  


     Atoms inside the unit cell: 

     Cartesian axes

     site n.  atom      mass           positions (alat units)
        1     Si  28.0855   tau(    1) = (   -0.25000    0.25000    0.25000  )
        2     Si  28.0855   tau(    2) = (   -0.50000    0.50000    0.50000  )

     Computing dynamical matrix for 
                    q = (   0.0000000  -1.0000000   0.0000000 )
 
     17 Sym.Ops. (with q -> -q+G )


     G cutoff =  640.8488  (   1410 G-vectors)     FFT grid: ( 36, 36, 36)
     number of k points=    40

     PseudoPot. # 1 for Si read from file:
     ../pseudo/Si.pbesol-n-rrkjus_psl.1.0.0.UPF
     MD5 check sum: c4212819de858c94c3a1644338846ac9
     Pseudo is Ultrasoft + core correction, Zval =  4.0
     Generated using "atomic" code by A. Dal Corso  v.6.0 svn rev. 13079
     Using radial grid of 1141 points,  6 beta functions with: 
                l(1) =   0
                l(2) =   0
                l(3) =   1
                l(4) =   1
                l(5) =   2
                l(6) =   2
     Q(r) pseudized with 0 coefficients 



     Atomic displacements:
     There are    3 irreducible representations

     Representation     1      2 modes -  To be done

     Representation     2      2 modes -  To be done

     Representation     3      2 modes -  To be done



     Alpha used in Ewald sum =   2.5000
     PHONON       :     12.40s CPU     16.50s WALL



     Representation #   1 modes #   1   2

     Self-consistent Calculation

      iter #   1 total cpu time :    16.8 secs   av.it.:   5.0
      thresh= 1.000E-02 alpha_mix =  0.700 |ddv_scf|^2 =  4.508E-08

      iter #   2 total cpu time :    17.2 secs   av.it.:  10.0
      thresh= 2.123E-05 alpha_mix =  0.700 |ddv_scf|^2 =  3.215E-09

      iter #   3 total cpu time :    17.5 secs   av.it.:  10.1
      thresh= 5.670E-06 alpha_mix =  0.700 |ddv_scf|^2 =  7.447E-12

      iter #   4 total cpu time :    17.8 secs   av.it.:  10.1
      thresh= 2.729E-07 alpha_mix =  0.700 |ddv_scf|^2 =  1.026E-13

      iter #   5 total cpu time :    18.1 secs   av.it.:  10.4
      thresh= 3.204E-08 alpha_mix =  0.700 |ddv_scf|^2 =  3.484E-16

     End of self-consistent calculation

     Convergence has been achieved 


     Representation #   2 modes #   3   4

     Self-consistent Calculation

      iter #   1 total cpu time :    18.4 secs   av.it.:   6.2
      thresh= 1.000E-02 alpha_mix =  0.700 |ddv_scf|^2 =  2.997E-06

      iter #   2 total cpu time :    18.7 secs   av.it.:  10.6
      thresh= 1.731E-04 alpha_mix =  0.700 |ddv_scf|^2 =  4.216E-06

      iter #   3 total cpu time :    19.0 secs   av.it.:   9.7
      thresh= 2.053E-04 alpha_mix =  0.700 |ddv_scf|^2 =  2.126E-09

      iter #   4 total cpu time :    19.5 secs   av.it.:  10.4
      thresh= 4.611E-06 alpha_mix =  0.700 |ddv_scf|^2 =  1.217E-10

      iter #   5 total cpu time :    19.9 secs   av.it.:  10.7
      thresh= 1.103E-06 alpha_mix =  0.700 |ddv_scf|^2 =  7.194E-13

      iter #   6 total cpu time :    20.2 secs   av.it.:  10.6
      thresh= 8.482E-08 alpha_mix =  0.700 |ddv_scf|^2 =  1.609E-14

      iter #   7 total cpu time :    20.5 secs   av.it.:  10.3
      thresh= 1.269E-08 alpha_mix =  0.700 |ddv_scf|^2 =  2.095E-16

     End of self-consistent calculation

     Convergence has been achieved 


     Representation #   3 modes #   5   6

     Self-consistent Calculation

      iter #   1 total cpu time :    20.9 secs   av.it.:   6.1
      thresh= 1.000E-02 alpha_mix =  0.700 |ddv_scf|^2 =  5.182E-07

      iter #   2 total cpu time :    21.3 secs   av.it.:  10.9
      thresh= 7.198E-05 alpha_mix =  0.700 |ddv_scf|^2 =  1.278E-07

      iter #   3 total cpu time :    21.6 secs   av.it.:  10.4
      thresh= 3.574E-05 alpha_mix =  0.700 |ddv_scf|^2 =  1.100E-09

      iter #   4 total cpu time :    21.9 secs   av.it.:  10.1
      thresh= 3.317E-06 alpha_mix =  0.700 |ddv_scf|^2 =  5.548E-13

      iter #   5 total cpu time :    22.3 secs   av.it.:  10.4
      thresh= 7.448E-08 alpha_mix =  0.700 |ddv_scf|^2 =  1.688E-14

      iter #   6 total cpu time :    22.6 secs   av.it.:  10.2
      thresh= 1.299E-08 alpha_mix =  0.700 |ddv_scf|^2 =  4.358E-17

     End of self-consistent calculation

     Convergence has been achieved 
 
     Number of q in the star =    3
     List of q in the star:
          1   0.000000000  -1.000000000   0.000000000
          2  -1.000000000   0.000000000   0.000000000
          3   0.000000000   0.000000000   1.000000000

     Diagonalizing the dynamical matrix

     q = (    0.000000000  -1.000000000   0.000000000 ) 

 **************************************************************************
     freq (    1) =       4.024489 [THz] =     134.242499 [cm-1]
     freq (    2) =       4.024489 [THz] =     134.242499 [cm-1]
     freq (    3) =      12.137885 [THz] =     404.876260 [cm-1]
     freq (    4) =      12.137885 [THz] =     404.876260 [cm-1]
     freq (    5) =      13.709563 [THz] =     457.301791 [cm-1]
     freq (    6) =      13.709563 [THz] =     457.301791 [cm-1]
 **************************************************************************
 
     init_run     :      0.14s CPU      0.15s WALL (       2 calls)
     electrons    :      0.67s CPU      0.71s WALL (       2 calls)

     Called by init_run:
     wfcinit      :      0.00s CPU      0.00s WALL (       2 calls)
     potinit      :      0.01s CPU      0.01s WALL (       2 calls)
     hinit0       :      0.10s CPU      0.10s WALL (       2 calls)

     Called by electrons:
     c_bands      :      0.67s CPU      0.71s WALL (       2 calls)
     v_of_rho     :      0.01s CPU      0.01s WALL (       3 calls)
     newd         :      0.01s CPU      0.01s WALL (       3 calls)

     Called by c_bands:
     init_us_2    :      0.07s CPU      0.08s WALL (    2030 calls)
     init_us_2:cp :      0.07s CPU      0.07s WALL (    2030 calls)
     cegterg      :      0.55s CPU      0.58s WALL (     100 calls)

     Called by *egterg:
     cdiaghg      :      0.07s CPU      0.07s WALL (    1458 calls)
     h_psi        :      6.63s CPU      7.06s WALL (   26480 calls)
     s_psi        :      0.39s CPU      0.42s WALL (   53622 calls)
     g_psi        :      0.00s CPU      0.00s WALL (    1358 calls)

     Called by h_psi:
     h_psi:calbec :      0.47s CPU      0.50s WALL (   26480 calls)
     vloc_psi     :      5.82s CPU      6.20s WALL (   26480 calls)
     add_vuspsi   :      0.20s CPU      0.22s WALL (   26480 calls)

     General routines
     calbec       :      1.08s CPU      1.15s WALL (   61322 calls)
     fft          :      0.54s CPU      0.60s WALL (    2142 calls)
     ffts         :      0.22s CPU      0.23s WALL (     492 calls)
     fftw         :      6.27s CPU      6.68s WALL (  222340 calls)
     davcio       :      0.07s CPU      0.12s WALL (   11689 calls)
 
     Parallel routines
 
     PHONON       :     17.13s CPU     22.90s WALL

     INITIALIZATION: 
     phq_setup    :      0.02s CPU      0.03s WALL (       3 calls)
     phq_init     :      0.60s CPU      0.61s WALL (       3 calls)
 
     phq_init     :      0.60s CPU      0.61s WALL (       3 calls)
     set_drhoc    :      0.09s CPU      0.09s WALL (       9 calls)
     init_vloc    :      0.01s CPU      0.01s WALL (       3 calls)
     init_us_1    :      0.11s CPU      0.11s WALL (       3 calls)
     init_us_2    :      0.07s CPU      0.08s WALL (    2030 calls)
     newd         :      0.01s CPU      0.01s WALL (       3 calls)
     dvanqq       :      0.14s CPU      0.14s WALL (       3 calls)
     drho         :      0.23s CPU      0.23s WALL (       3 calls)
     drhous       :      0.10s CPU      0.11s WALL (       3 calls)
     nldyntot     :      0.01s CPU      0.01s WALL (       3 calls)
 
     DYNAMICAL MATRIX:
     dynmat0      :      0.10s CPU      0.11s WALL (       3 calls)
     phqscf       :     13.49s CPU     17.47s WALL (       3 calls)
     dynmatrix    :      0.08s CPU      0.08s WALL (       3 calls)
 
     phqscf       :     13.49s CPU     17.47s WALL (       3 calls)
     solve_linter :     13.22s CPU     16.75s WALL (       9 calls)
     drhodv       :      0.05s CPU      0.06s WALL (       9 calls)
 
     dynmat0      :      0.10s CPU      0.11s WALL (       3 calls)
     dynmat_us    :      0.03s CPU      0.03s WALL (       3 calls)
     d2ionq       :      0.00s CPU      0.00s WALL (       3 calls)
     dynmatcc     :      0.07s CPU      0.07s WALL (       3 calls)
 
     dynmat_us    :      0.03s CPU      0.03s WALL (       3 calls)
     addusdynmat  :      0.00s CPU      0.00s WALL (       3 calls)
 
     phqscf       :     13.49s CPU     17.47s WALL (       3 calls)
     solve_linter :     13.22s CPU     16.75s WALL (       9 calls)
 
     solve_linter :     13.22s CPU     16.75s WALL (       9 calls)
     dvqpsi_us    :      0.44s CPU      0.45s WALL (     420 calls)
                                        0.00s GPU  (     420 calls)
     sth_kernel   :      9.16s CPU      9.79s WALL (      56 calls)
     h_prec       :      0.03s CPU      0.03s WALL (    1230 calls)
     apply_dpot_b :      0.48s CPU      0.52s WALL (    1770 calls)
     ortho        :      0.11s CPU      0.12s WALL (    2190 calls)
     cgsolve      :      8.06s CPU      8.58s WALL (    2190 calls)
     incdrhoscf   :      0.67s CPU      0.72s WALL (    2190 calls)
                                        0.00s GPU  (    2190 calls)
     addusddens   :      0.41s CPU      0.42s WALL (      60 calls)
     dv_of_drho   :      0.11s CPU      0.12s WALL (     117 calls)
     mix_pot      :      0.06s CPU      1.42s WALL (      56 calls)
     psymdvscf    :      2.14s CPU      2.14s WALL (      51 calls)
     newdq        :      0.94s CPU      0.94s WALL (      56 calls)
     adddvscf     :      0.03s CPU      0.03s WALL (    1770 calls)
     drhodvus     :      0.00s CPU      0.00s WALL (       9 calls)
 
     dvqpsi_us    :      0.44s CPU      0.45s WALL (     420 calls)
                                        0.00s GPU  (     420 calls)
     dvqpsi_us_on :      0.10s CPU      0.10s WALL (     420 calls)
 
     cgsolve      :      8.06s CPU      8.58s WALL (    2190 calls)
     ch_psi       :      7.62s CPU      8.11s WALL (   24922 calls)
 
     ch_psi       :      7.62s CPU      8.11s WALL (   24922 calls)
     h_psi        :      6.63s CPU      7.06s WALL (   26480 calls)
     last         :      1.10s CPU      1.17s WALL (   24922 calls)
 
     h_psi        :      6.63s CPU      7.06s WALL (   26480 calls)
     add_vuspsi   :      0.20s CPU      0.22s WALL (   26480 calls)
 
     incdrhoscf   :      0.67s CPU      0.72s WALL (    2190 calls)
                                        0.00s GPU  (    2190 calls)
     addusdbec    :      0.07s CPU      0.08s WALL (    2550 calls)
 
     drhodvus     :      0.00s CPU      0.00s WALL (       9 calls)
 
      General routines
     calbec       :      1.08s CPU      1.15s WALL (   61322 calls)
     fft          :      0.54s CPU      0.60s WALL (    2142 calls)
     ffts         :      0.22s CPU      0.23s WALL (     492 calls)
     fftw         :      6.27s CPU      6.68s WALL (  222340 calls)
     davcio       :      0.07s CPU      0.12s WALL (   11689 calls)
     write_rec    :      0.03s CPU      2.40s WALL (      65 calls)
 
      Additional routines
     ch_psi       :      7.62s CPU      8.11s WALL (   24922 calls)
     last         :      1.10s CPU      1.17s WALL (   24922 calls)
     Hesh         :      0.04s CPU      0.04s WALL (   24922 calls)
     ch_psi_all_k :      1.01s CPU      1.07s WALL (   24922 calls)
                                        0.00s GPU  (   24922 calls)
     ch_psi_calbe :      0.37s CPU      0.40s WALL (   24922 calls)
                                        0.00s GPU  (   24922 calls)
     h_psi_bgrp   :      6.66s CPU      7.09s WALL (   26480 calls)
     h_psi        :      6.63s CPU      7.06s WALL (   26480 calls)
     h_psi:pot    :      6.57s CPU      7.00s WALL (   26480 calls)
     h_psi:calbec :      0.47s CPU      0.50s WALL (   26480 calls)
     s_psi_bgrp   :      0.47s CPU      0.50s WALL (   53622 calls)
     s_psi        :      0.39s CPU      0.42s WALL (   53622 calls)
 
 
     PHONON       :     17.13s CPU     22.90s WALL

 
   This run was terminated on:  14: 5:24  27Dec2022            

=------------------------------------------------------------------------------=
   JOB DONE.
=------------------------------------------------------------------------------=

     Program Q2R v.7.1 starts on 27Dec2022 at 14: 5:26 

     This program is part of the open-source Quantum ESPRESSO suite
     for quantum simulation of materials; please cite
         "P. Giannozzi et al., J. Phys.:Condens. Matter 21 395502 (2009);
         "P. Giannozzi et al., J. Phys.:Condens. Matter 29 465901 (2017);
         "P. Giannozzi et al., J. Chem. Phys. 152 154105 (2020);
          URL http://www.quantum-espresso.org", 
     in publications or presentations arising from this work. More details at
     http://www.quantum-espresso.org/quote

     Parallel version (MPI), running on    12 processors

     MPI processes distributed on     1 nodes
     R & G space division:  proc/nbgrp/npool/nimage =      12
     106401 MiB available memory on the printing compute node when the environment starts
 

  reading grid info from file Si.dyn0    

  reading force constants from file Si.dyn1
 macroscopic fields = T
  14.36660   0.00000   0.00000
   0.00000  14.36660   0.00000
   0.00000   0.00000  14.36660
  na=            1
  -0.08521   0.00000   0.00000
   0.00000  -0.08521   0.00000
   0.00000   0.00000  -0.08521
  na=            2
  -0.08521   0.00000   0.00000
   0.00000  -0.08521   0.00000
   0.00000   0.00000  -0.08521
  nqs=            1
 q=   0.00000000  0.00000000  0.00000000
  reading force constants from file Si.dyn2
  nqs=            4
 q=   0.50000000 -0.50000000  0.50000000
 q=   0.50000000  0.50000000 -0.50000000
 q=  -0.50000000 -0.50000000 -0.50000000
 q=   0.50000000 -0.50000000 -0.50000000
  reading force constants from file Si.dyn3
  nqs=            3
 q=   0.00000000 -1.00000000  0.00000000
 q=  -1.00000000  0.00000000  0.00000000
 q=   0.00000000  0.00000000  1.00000000

      q-space grid ok, #points =    8

      fft-check success (sum of imaginary terms < 10^-12)
 
     Q2R          :      0.00s CPU      0.01s WALL

 
   This run was terminated on:  14: 5:26  27Dec2022            

=------------------------------------------------------------------------------=
   JOB DONE.
=------------------------------------------------------------------------------=

 style : tpiba
   0.00000    0.00000    0.00000  53  !  GAMMA
   0.00000   -1.00000    0.00000  40  !  X
  -0.25000   -1.00000   -0.25000  1  !  U
  -0.00000   -0.75000   -0.75000  53  !  K
   0.00000    0.00000    0.00000  43  !  GAMMA
  -0.50000   -0.50000   -0.50000  35  !  L
  -0.00000   -1.00000   -0.50000  25  !  W
   0.00000   -1.00000    0.00000  1  !  X
 Output band.in

     Program MATDYN v.7.1 starts on 27Dec2022 at 14: 5:31 

     This program is part of the open-source Quantum ESPRESSO suite
     for quantum simulation of materials; please cite
         "P. Giannozzi et al., J. Phys.:Condens. Matter 21 395502 (2009);
         "P. Giannozzi et al., J. Phys.:Condens. Matter 29 465901 (2017);
         "P. Giannozzi et al., J. Chem. Phys. 152 154105 (2020);
          URL http://www.quantum-espresso.org", 
     in publications or presentations arising from this work. More details at
     http://www.quantum-espresso.org/quote

     Parallel version (MPI), running on    12 processors

     MPI processes distributed on     1 nodes
     R & G space division:  proc/nbgrp/npool/nimage =      12
     106252 MiB available memory on the printing compute node when the environment starts
 
 mass for atomic type   1 not given; uses mass from file Si.fc                                                                                                                                                                                                                                                           
 
     MATDYN       :      0.04s CPU      0.05s WALL

 
   This run was terminated on:  14: 5:31  27Dec2022            

=------------------------------------------------------------------------------=
   JOB DONE.
=------------------------------------------------------------------------------=
 Output fig_band.png

     Program MATDYN v.7.1 starts on 27Dec2022 at 14: 5:34 

     This program is part of the open-source Quantum ESPRESSO suite
     for quantum simulation of materials; please cite
         "P. Giannozzi et al., J. Phys.:Condens. Matter 21 395502 (2009);
         "P. Giannozzi et al., J. Phys.:Condens. Matter 29 465901 (2017);
         "P. Giannozzi et al., J. Chem. Phys. 152 154105 (2020);
          URL http://www.quantum-espresso.org", 
     in publications or presentations arising from this work. More details at
     http://www.quantum-espresso.org/quote

     Parallel version (MPI), running on    12 processors

     MPI processes distributed on     1 nodes
     R & G space division:  proc/nbgrp/npool/nimage =      12
     106225 MiB available memory on the printing compute node when the environment starts
 
 mass for atomic type   1 not given; uses mass from file Si.fc                                                                                                                                                                                                                                                           
 
     MATDYN       :      2.95s CPU      2.96s WALL

 
   This run was terminated on:  14: 5:37  27Dec2022            

=------------------------------------------------------------------------------=
   JOB DONE.
=------------------------------------------------------------------------------=
 Output fig_dos.png
