
     Program Q2R v.7.1 starts on 26Dec2022 at 21:20:15 

     This program is part of the open-source Quantum ESPRESSO suite
     for quantum simulation of materials; please cite
         "P. Giannozzi et al., J. Phys.:Condens. Matter 21 395502 (2009);
         "P. Giannozzi et al., J. Phys.:Condens. Matter 29 465901 (2017);
         "P. Giannozzi et al., J. Chem. Phys. 152 154105 (2020);
          URL http://www.quantum-espresso.org", 
     in publications or presentations arising from this work. More details at
     http://www.quantum-espresso.org/quote

     Parallel version (MPI), running on    24 processors

     MPI processes distributed on     1 nodes
     R & G space division:  proc/nbgrp/npool/nimage =      24
     106934 MiB available memory on the printing compute node when the environment starts
 

  reading grid info from file Si.dyn0    

  reading force constants from file Si.dyn1
 macroscopic fields = T
  14.30296   0.00000   0.00000
   0.00000  14.30296   0.00000
   0.00000   0.00000  14.30296
  na=            1
  -0.08475   0.00000   0.00000
   0.00000  -0.08475   0.00000
   0.00000   0.00000  -0.08475
  na=            2
  -0.08475   0.00000   0.00000
   0.00000  -0.08475   0.00000
   0.00000   0.00000  -0.08475
  nqs=            1
 q=   0.00000000  0.00000000  0.00000000
  reading force constants from file Si.dyn2
  nqs=            8
 q=  -0.12500000  0.12500000 -0.12500000
 q=   0.12500000 -0.12500000 -0.12500000
 q=   0.12500000 -0.12500000  0.12500000
 q=  -0.12500000  0.12500000  0.12500000
 q=   0.12500000  0.12500000 -0.12500000
 q=  -0.12500000 -0.12500000 -0.12500000
 q=  -0.12500000 -0.12500000  0.12500000
 q=   0.12500000  0.12500000  0.12500000
  reading force constants from file Si.dyn3
  nqs=            8
 q=  -0.25000000  0.25000000 -0.25000000
 q=   0.25000000 -0.25000000 -0.25000000
 q=   0.25000000 -0.25000000  0.25000000
 q=  -0.25000000  0.25000000  0.25000000
 q=   0.25000000  0.25000000 -0.25000000
 q=  -0.25000000 -0.25000000 -0.25000000
 q=  -0.25000000 -0.25000000  0.25000000
 q=   0.25000000  0.25000000  0.25000000
  reading force constants from file Si.dyn4
  nqs=            8
 q=  -0.37500000  0.37500000 -0.37500000
 q=   0.37500000 -0.37500000 -0.37500000
 q=   0.37500000 -0.37500000  0.37500000
 q=  -0.37500000  0.37500000  0.37500000
 q=   0.37500000  0.37500000 -0.37500000
 q=  -0.37500000 -0.37500000 -0.37500000
 q=  -0.37500000 -0.37500000  0.37500000
 q=   0.37500000  0.37500000  0.37500000
  reading force constants from file Si.dyn5
  nqs=            4
 q=   0.50000000 -0.50000000  0.50000000
 q=   0.50000000  0.50000000  0.50000000
 q=  -0.50000000  0.50000000  0.50000000
 q=   0.50000000  0.50000000 -0.50000000
  reading force constants from file Si.dyn6
  nqs=            6
 q=   0.00000000  0.25000000  0.00000000
 q=   0.00000000 -0.25000000  0.00000000
 q=   0.25000000  0.00000000  0.00000000
 q=   0.00000000  0.00000000  0.25000000
 q=   0.00000000  0.00000000 -0.25000000
 q=  -0.25000000  0.00000000  0.00000000
  reading force constants from file Si.dyn7
  nqs=           24
 q=  -0.12500000  0.37500000 -0.12500000
 q=  -0.12500000  0.37500000  0.12500000
 q=   0.12500000  0.37500000 -0.12500000
 q=   0.12500000  0.37500000  0.12500000
 q=   0.12500000 -0.37500000  0.12500000
 q=   0.37500000 -0.12500000  0.12500000
 q=   0.12500000 -0.12500000  0.37500000
 q=  -0.12500000 -0.37500000 -0.12500000
 q=   0.12500000 -0.37500000 -0.12500000
 q=  -0.12500000 -0.37500000  0.12500000
 q=   0.12500000 -0.12500000 -0.37500000
 q=   0.37500000 -0.12500000 -0.12500000
 q=  -0.37500000 -0.12500000  0.12500000
 q=   0.37500000  0.12500000  0.12500000
 q=  -0.12500000 -0.12500000  0.37500000
 q=   0.12500000  0.12500000  0.37500000
 q=  -0.37500000  0.12500000 -0.12500000
 q=  -0.12500000  0.12500000 -0.37500000
 q=  -0.37500000 -0.12500000 -0.12500000
 q=   0.12500000  0.12500000 -0.37500000
 q=   0.37500000  0.12500000 -0.12500000
 q=  -0.12500000 -0.12500000 -0.37500000
 q=  -0.37500000  0.12500000  0.12500000
 q=  -0.12500000  0.12500000  0.37500000
  reading force constants from file Si.dyn8
  nqs=           24
 q=  -0.25000000  0.50000000 -0.25000000
 q=  -0.25000000  0.50000000  0.25000000
 q=   0.25000000  0.50000000 -0.25000000
 q=   0.25000000  0.50000000  0.25000000
 q=   0.25000000 -0.50000000  0.25000000
 q=   0.50000000 -0.25000000  0.25000000
 q=   0.25000000 -0.25000000  0.50000000
 q=  -0.25000000 -0.50000000 -0.25000000
 q=   0.25000000 -0.50000000 -0.25000000
 q=  -0.25000000 -0.50000000  0.25000000
 q=   0.25000000 -0.25000000 -0.50000000
 q=   0.50000000 -0.25000000 -0.25000000
 q=  -0.50000000 -0.25000000  0.25000000
 q=   0.50000000  0.25000000  0.25000000
 q=  -0.25000000 -0.25000000  0.50000000
 q=   0.25000000  0.25000000  0.50000000
 q=  -0.50000000  0.25000000 -0.25000000
 q=  -0.25000000  0.25000000 -0.50000000
 q=  -0.50000000 -0.25000000 -0.25000000
 q=   0.25000000  0.25000000 -0.50000000
 q=   0.50000000  0.25000000 -0.25000000
 q=  -0.25000000 -0.25000000 -0.50000000
 q=  -0.50000000  0.25000000  0.25000000
 q=  -0.25000000  0.25000000  0.50000000
  reading force constants from file Si.dyn9
  nqs=           24
 q=   0.62500000 -0.37500000  0.62500000
 q=   0.62500000 -0.37500000 -0.62500000
 q=  -0.62500000 -0.37500000  0.62500000
 q=  -0.62500000 -0.37500000 -0.62500000
 q=  -0.62500000  0.37500000 -0.62500000
 q=  -0.37500000  0.62500000 -0.62500000
 q=  -0.62500000  0.62500000 -0.37500000
 q=   0.62500000  0.37500000  0.62500000
 q=  -0.62500000  0.37500000  0.62500000
 q=   0.62500000  0.37500000 -0.62500000
 q=  -0.62500000  0.62500000  0.37500000
 q=  -0.37500000  0.62500000  0.62500000
 q=   0.37500000  0.62500000 -0.62500000
 q=  -0.37500000 -0.62500000 -0.62500000
 q=   0.62500000  0.62500000 -0.37500000
 q=  -0.62500000 -0.62500000 -0.37500000
 q=   0.37500000 -0.62500000  0.62500000
 q=   0.62500000 -0.62500000  0.37500000
 q=   0.37500000  0.62500000  0.62500000
 q=  -0.62500000 -0.62500000  0.37500000
 q=  -0.37500000 -0.62500000  0.62500000
 q=   0.62500000  0.62500000  0.37500000
 q=   0.37500000 -0.62500000 -0.62500000
 q=   0.62500000 -0.62500000 -0.37500000
  reading force constants from file Si.dyn10
  nqs=           24
 q=   0.50000000 -0.25000000  0.50000000
 q=   0.50000000 -0.25000000 -0.50000000
 q=  -0.50000000 -0.25000000  0.50000000
 q=  -0.50000000 -0.25000000 -0.50000000
 q=  -0.50000000  0.25000000 -0.50000000
 q=  -0.25000000  0.50000000 -0.50000000
 q=  -0.50000000  0.50000000 -0.25000000
 q=   0.50000000  0.25000000  0.50000000
 q=  -0.50000000  0.25000000  0.50000000
 q=   0.50000000  0.25000000 -0.50000000
 q=  -0.50000000  0.50000000  0.25000000
 q=  -0.25000000  0.50000000  0.50000000
 q=   0.25000000  0.50000000 -0.50000000
 q=  -0.25000000 -0.50000000 -0.50000000
 q=   0.50000000  0.50000000 -0.25000000
 q=  -0.50000000 -0.50000000 -0.25000000
 q=   0.25000000 -0.50000000  0.50000000
 q=   0.50000000 -0.50000000  0.25000000
 q=   0.25000000  0.50000000  0.50000000
 q=  -0.50000000 -0.50000000  0.25000000
 q=  -0.25000000 -0.50000000  0.50000000
 q=   0.50000000  0.50000000  0.25000000
 q=   0.25000000 -0.50000000 -0.50000000
 q=   0.50000000 -0.50000000 -0.25000000
  reading force constants from file Si.dyn11
  nqs=           24
 q=   0.37500000 -0.12500000  0.37500000
 q=   0.37500000 -0.12500000 -0.37500000
 q=  -0.37500000 -0.12500000  0.37500000
 q=  -0.37500000 -0.12500000 -0.37500000
 q=  -0.37500000  0.12500000 -0.37500000
 q=  -0.12500000  0.37500000 -0.37500000
 q=  -0.37500000  0.37500000 -0.12500000
 q=   0.37500000  0.12500000  0.37500000
 q=  -0.37500000  0.12500000  0.37500000
 q=   0.37500000  0.12500000 -0.37500000
 q=  -0.37500000  0.37500000  0.12500000
 q=  -0.12500000  0.37500000  0.37500000
 q=   0.12500000  0.37500000 -0.37500000
 q=  -0.12500000 -0.37500000 -0.37500000
 q=   0.37500000  0.37500000 -0.12500000
 q=  -0.37500000 -0.37500000 -0.12500000
 q=   0.12500000 -0.37500000  0.37500000
 q=   0.37500000 -0.37500000  0.12500000
 q=   0.12500000  0.37500000  0.37500000
 q=  -0.37500000 -0.37500000  0.12500000
 q=  -0.12500000 -0.37500000  0.37500000
 q=   0.37500000  0.37500000  0.12500000
 q=   0.12500000 -0.37500000 -0.37500000
 q=   0.37500000 -0.37500000 -0.12500000
  reading force constants from file Si.dyn12
  nqs=           12
 q=   0.25000000  0.00000000  0.25000000
 q=  -0.25000000  0.00000000  0.25000000
 q=  -0.25000000  0.00000000 -0.25000000
 q=   0.00000000  0.25000000 -0.25000000
 q=  -0.25000000  0.25000000  0.00000000
 q=   0.25000000  0.00000000 -0.25000000
 q=   0.00000000  0.25000000  0.25000000
 q=   0.00000000 -0.25000000 -0.25000000
 q=   0.25000000  0.25000000  0.00000000
 q=  -0.25000000 -0.25000000  0.00000000
 q=   0.00000000 -0.25000000  0.25000000
 q=   0.25000000 -0.25000000  0.00000000
  reading force constants from file Si.dyn13
  nqs=            6
 q=   0.00000000  0.50000000  0.00000000
 q=   0.00000000 -0.50000000  0.00000000
 q=   0.50000000  0.00000000  0.00000000
 q=   0.00000000  0.00000000  0.50000000
 q=   0.00000000  0.00000000 -0.50000000
 q=  -0.50000000  0.00000000  0.00000000
  reading force constants from file Si.dyn14
  nqs=           24
 q=  -0.12500000  0.62500000 -0.12500000
 q=   0.12500000  0.62500000 -0.12500000
 q=   0.12500000  0.62500000  0.12500000
 q=  -0.12500000  0.62500000  0.12500000
 q=   0.12500000 -0.62500000  0.12500000
 q=   0.62500000 -0.12500000  0.12500000
 q=   0.12500000 -0.12500000  0.62500000
 q=  -0.12500000 -0.62500000 -0.12500000
 q=   0.12500000 -0.62500000 -0.12500000
 q=  -0.12500000 -0.62500000  0.12500000
 q=   0.12500000 -0.12500000 -0.62500000
 q=   0.62500000 -0.12500000 -0.12500000
 q=  -0.62500000 -0.12500000  0.12500000
 q=   0.62500000  0.12500000  0.12500000
 q=  -0.12500000 -0.12500000  0.62500000
 q=   0.12500000  0.12500000  0.62500000
 q=  -0.62500000  0.12500000 -0.12500000
 q=  -0.12500000  0.12500000 -0.62500000
 q=  -0.62500000 -0.12500000 -0.12500000
 q=   0.12500000  0.12500000 -0.62500000
 q=   0.62500000  0.12500000 -0.12500000
 q=  -0.12500000 -0.12500000 -0.62500000
 q=  -0.62500000  0.12500000  0.12500000
 q=  -0.12500000  0.12500000  0.62500000
  reading force constants from file Si.dyn15
  nqs=           24
 q=   0.75000000 -0.25000000  0.75000000
 q=  -0.75000000 -0.25000000  0.75000000
 q=  -0.75000000 -0.25000000 -0.75000000
 q=   0.75000000 -0.25000000 -0.75000000
 q=  -0.75000000  0.25000000 -0.75000000
 q=  -0.25000000  0.75000000 -0.75000000
 q=  -0.75000000  0.75000000 -0.25000000
 q=   0.75000000  0.25000000  0.75000000
 q=  -0.75000000  0.25000000  0.75000000
 q=   0.75000000  0.25000000 -0.75000000
 q=  -0.75000000  0.75000000  0.25000000
 q=  -0.25000000  0.75000000  0.75000000
 q=   0.25000000  0.75000000 -0.75000000
 q=  -0.25000000 -0.75000000 -0.75000000
 q=   0.75000000  0.75000000 -0.25000000
 q=  -0.75000000 -0.75000000 -0.25000000
 q=   0.25000000 -0.75000000  0.75000000
 q=   0.75000000 -0.75000000  0.25000000
 q=   0.25000000  0.75000000  0.75000000
 q=  -0.75000000 -0.75000000  0.25000000
 q=  -0.25000000 -0.75000000  0.75000000
 q=   0.75000000  0.75000000  0.25000000
 q=   0.25000000 -0.75000000 -0.75000000
 q=   0.75000000 -0.75000000 -0.25000000
  reading force constants from file Si.dyn16
  nqs=           24
 q=   0.62500000 -0.12500000  0.62500000
 q=  -0.62500000 -0.12500000  0.62500000
 q=  -0.62500000 -0.12500000 -0.62500000
 q=   0.62500000 -0.12500000 -0.62500000
 q=  -0.62500000  0.12500000 -0.62500000
 q=  -0.12500000  0.62500000 -0.62500000
 q=  -0.62500000  0.62500000 -0.12500000
 q=   0.62500000  0.12500000  0.62500000
 q=  -0.62500000  0.12500000  0.62500000
 q=   0.62500000  0.12500000 -0.62500000
 q=  -0.62500000  0.62500000  0.12500000
 q=  -0.12500000  0.62500000  0.62500000
 q=   0.12500000  0.62500000 -0.62500000
 q=  -0.12500000 -0.62500000 -0.62500000
 q=   0.62500000  0.62500000 -0.12500000
 q=  -0.62500000 -0.62500000 -0.12500000
 q=   0.12500000 -0.62500000  0.62500000
 q=   0.62500000 -0.62500000  0.12500000
 q=   0.12500000  0.62500000  0.62500000
 q=  -0.62500000 -0.62500000  0.12500000
 q=  -0.12500000 -0.62500000  0.62500000
 q=   0.62500000  0.62500000  0.12500000
 q=   0.12500000 -0.62500000 -0.62500000
 q=   0.62500000 -0.62500000 -0.12500000
  reading force constants from file Si.dyn17
  nqs=           12
 q=   0.50000000  0.00000000  0.50000000
 q=  -0.50000000  0.00000000  0.50000000
 q=  -0.50000000  0.00000000 -0.50000000
 q=   0.50000000  0.00000000 -0.50000000
 q=   0.00000000  0.50000000 -0.50000000
 q=  -0.50000000  0.50000000  0.00000000
 q=   0.00000000  0.50000000  0.50000000
 q=   0.00000000 -0.50000000 -0.50000000
 q=   0.50000000  0.50000000  0.00000000
 q=  -0.50000000 -0.50000000  0.00000000
 q=   0.00000000 -0.50000000  0.50000000
 q=   0.50000000 -0.50000000  0.00000000
  reading force constants from file Si.dyn18
  nqs=            6
 q=   0.00000000  0.75000000  0.00000000
 q=   0.00000000 -0.75000000  0.00000000
 q=   0.75000000  0.00000000  0.00000000
 q=   0.00000000  0.00000000  0.75000000
 q=   0.00000000  0.00000000 -0.75000000
 q=  -0.75000000  0.00000000  0.00000000
  reading force constants from file Si.dyn19
  nqs=           24
 q=   0.87500000 -0.12500000  0.87500000
 q=  -0.87500000 -0.12500000  0.87500000
 q=  -0.87500000 -0.12500000 -0.87500000
 q=   0.87500000 -0.12500000 -0.87500000
 q=  -0.87500000  0.12500000 -0.87500000
 q=  -0.12500000  0.87500000 -0.87500000
 q=  -0.87500000  0.87500000 -0.12500000
 q=   0.87500000  0.12500000  0.87500000
 q=  -0.87500000  0.12500000  0.87500000
 q=   0.87500000  0.12500000 -0.87500000
 q=  -0.87500000  0.87500000  0.12500000
 q=  -0.12500000  0.87500000  0.87500000
 q=   0.12500000  0.87500000 -0.87500000
 q=  -0.12500000 -0.87500000 -0.87500000
 q=   0.87500000  0.87500000 -0.12500000
 q=  -0.87500000 -0.87500000 -0.12500000
 q=   0.12500000 -0.87500000  0.87500000
 q=   0.87500000 -0.87500000  0.12500000
 q=   0.12500000  0.87500000  0.87500000
 q=  -0.87500000 -0.87500000  0.12500000
 q=  -0.12500000 -0.87500000  0.87500000
 q=   0.87500000  0.87500000  0.12500000
 q=   0.12500000 -0.87500000 -0.87500000
 q=   0.87500000 -0.87500000 -0.12500000
  reading force constants from file Si.dyn20
  nqs=           12
 q=   0.75000000  0.00000000  0.75000000
 q=   0.75000000  0.00000000 -0.75000000
 q=  -0.75000000  0.00000000  0.75000000
 q=  -0.75000000  0.00000000 -0.75000000
 q=   0.00000000  0.75000000 -0.75000000
 q=  -0.75000000  0.75000000  0.00000000
 q=   0.00000000  0.75000000  0.75000000
 q=   0.00000000 -0.75000000 -0.75000000
 q=   0.75000000  0.75000000  0.00000000
 q=  -0.75000000 -0.75000000  0.00000000
 q=   0.00000000 -0.75000000  0.75000000
 q=   0.75000000 -0.75000000  0.00000000
  reading force constants from file Si.dyn21
  nqs=            3
 q=   0.00000000 -1.00000000  0.00000000
 q=  -1.00000000  0.00000000  0.00000000
 q=   0.00000000  0.00000000 -1.00000000
  reading force constants from file Si.dyn22
  nqs=           24
 q=  -0.25000000  0.50000000  0.00000000
 q=   0.00000000 -0.50000000 -0.25000000
 q=  -0.25000000 -0.50000000  0.00000000
 q=   0.00000000  0.50000000  0.25000000
 q=   0.00000000  0.50000000 -0.25000000
 q=   0.25000000  0.50000000  0.00000000
 q=   0.00000000 -0.50000000  0.25000000
 q=   0.25000000 -0.50000000  0.00000000
 q=   0.50000000  0.00000000 -0.25000000
 q=  -0.50000000  0.00000000  0.25000000
 q=   0.50000000  0.00000000  0.25000000
 q=   0.50000000 -0.25000000  0.00000000
 q=   0.00000000 -0.25000000  0.50000000
 q=   0.00000000  0.25000000  0.50000000
 q=   0.00000000 -0.25000000 -0.50000000
 q=  -0.50000000  0.25000000  0.00000000
 q=  -0.50000000  0.00000000 -0.25000000
 q=  -0.25000000  0.00000000 -0.50000000
 q=  -0.50000000 -0.25000000  0.00000000
 q=   0.50000000  0.25000000  0.00000000
 q=   0.25000000  0.00000000 -0.50000000
 q=   0.00000000  0.25000000 -0.50000000
 q=  -0.25000000  0.00000000  0.50000000
 q=   0.25000000  0.00000000  0.50000000
  reading force constants from file Si.dyn23
  nqs=           48
 q=   0.62500000 -0.37500000  0.87500000
 q=   0.62500000 -0.37500000 -0.87500000
 q=   0.87500000  0.37500000  0.62500000
 q=   0.62500000  0.37500000  0.87500000
 q=   0.87500000 -0.37500000 -0.62500000
 q=   0.87500000 -0.37500000  0.62500000
 q=  -0.87500000 -0.37500000  0.62500000
 q=  -0.62500000 -0.37500000 -0.87500000
 q=  -0.87500000  0.37500000 -0.62500000
 q=  -0.62500000 -0.37500000  0.87500000
 q=  -0.87500000  0.37500000  0.62500000
 q=   0.87500000  0.37500000 -0.62500000
 q=  -0.62500000  0.37500000  0.87500000
 q=  -0.87500000 -0.37500000 -0.62500000
 q=   0.62500000  0.37500000 -0.87500000
 q=  -0.62500000  0.37500000 -0.87500000
 q=  -0.37500000  0.87500000  0.62500000
 q=   0.37500000  0.87500000 -0.62500000
 q=  -0.37500000 -0.87500000 -0.62500000
 q=  -0.37500000  0.62500000 -0.87500000
 q=   0.87500000  0.62500000 -0.37500000
 q=  -0.37500000  0.87500000 -0.62500000
 q=  -0.87500000 -0.62500000 -0.37500000
 q=  -0.87500000  0.62500000  0.37500000
 q=   0.37500000 -0.62500000  0.87500000
 q=   0.37500000 -0.87500000  0.62500000
 q=   0.62500000 -0.87500000  0.37500000
 q=  -0.87500000  0.62500000 -0.37500000
 q=   0.37500000  0.62500000  0.87500000
 q=  -0.37500000  0.62500000  0.87500000
 q=   0.37500000  0.62500000 -0.87500000
 q=  -0.37500000 -0.62500000 -0.87500000
 q=  -0.62500000 -0.87500000  0.37500000
 q=  -0.37500000 -0.62500000  0.87500000
 q=   0.87500000 -0.62500000  0.37500000
 q=   0.62500000  0.87500000  0.37500000
 q=   0.37500000 -0.62500000 -0.87500000
 q=   0.62500000  0.87500000 -0.37500000
 q=  -0.62500000 -0.87500000 -0.37500000
 q=  -0.62500000  0.87500000 -0.37500000
 q=   0.37500000 -0.87500000 -0.62500000
 q=  -0.37500000 -0.87500000  0.62500000
 q=   0.37500000  0.87500000  0.62500000
 q=   0.62500000 -0.87500000 -0.37500000
 q=  -0.87500000 -0.62500000  0.37500000
 q=  -0.62500000  0.87500000  0.37500000
 q=   0.87500000  0.62500000  0.37500000
 q=   0.87500000 -0.62500000 -0.37500000
  reading force constants from file Si.dyn24
  nqs=           24
 q=   0.50000000 -0.25000000  0.75000000
 q=   0.75000000  0.25000000  0.50000000
 q=   0.50000000  0.25000000  0.75000000
 q=   0.75000000 -0.25000000 -0.50000000
 q=   0.75000000 -0.25000000  0.50000000
 q=  -0.75000000 -0.25000000  0.50000000
 q=  -0.50000000 -0.25000000 -0.75000000
 q=  -0.75000000  0.25000000 -0.50000000
 q=  -0.50000000 -0.25000000  0.75000000
 q=  -0.75000000  0.25000000  0.50000000
 q=   0.75000000  0.25000000 -0.50000000
 q=  -0.50000000  0.25000000  0.75000000
 q=  -0.75000000 -0.25000000 -0.50000000
 q=   0.50000000  0.25000000 -0.75000000
 q=  -0.50000000  0.25000000 -0.75000000
 q=  -0.25000000  0.50000000 -0.75000000
 q=   0.75000000  0.50000000 -0.25000000
 q=  -0.75000000 -0.50000000 -0.25000000
 q=  -0.75000000  0.50000000  0.25000000
 q=   0.25000000 -0.50000000  0.75000000
 q=  -0.25000000  0.50000000  0.75000000
 q=   0.25000000  0.50000000 -0.75000000
 q=  -0.25000000 -0.50000000 -0.75000000
 q=   0.50000000 -0.25000000 -0.75000000
  reading force constants from file Si.dyn25
  nqs=           24
 q=   0.75000000 -0.25000000  1.00000000
 q=   1.00000000  0.25000000  0.75000000
 q=   0.75000000  0.25000000  1.00000000
 q=   1.00000000 -0.25000000 -0.75000000
 q=   1.00000000 -0.25000000  0.75000000
 q=  -0.75000000 -0.25000000 -1.00000000
 q=  -1.00000000  0.25000000 -0.75000000
 q=  -0.75000000  0.25000000  1.00000000
 q=  -0.25000000  1.00000000  0.75000000
 q=   0.25000000  1.00000000 -0.75000000
 q=  -0.25000000 -1.00000000 -0.75000000
 q=  -0.25000000  0.75000000 -1.00000000
 q=   1.00000000  0.75000000 -0.25000000
 q=  -1.00000000 -0.75000000 -0.25000000
 q=  -1.00000000  0.75000000  0.25000000
 q=   0.25000000 -0.75000000  1.00000000
 q=   0.25000000 -1.00000000  0.75000000
 q=   0.75000000 -1.00000000  0.25000000
 q=   0.25000000  0.75000000  1.00000000
 q=  -0.25000000 -0.75000000 -1.00000000
 q=  -0.75000000 -1.00000000  0.25000000
 q=   1.00000000 -0.75000000  0.25000000
 q=   0.75000000  1.00000000 -0.25000000
 q=  -0.75000000 -1.00000000 -0.25000000
  reading force constants from file Si.dyn26
  nqs=           48
 q=   0.62500000 -0.12500000  0.87500000
 q=   0.62500000 -0.12500000 -0.87500000
 q=   0.87500000  0.12500000  0.62500000
 q=   0.62500000  0.12500000  0.87500000
 q=   0.87500000 -0.12500000 -0.62500000
 q=   0.87500000 -0.12500000  0.62500000
 q=  -0.87500000 -0.12500000  0.62500000
 q=  -0.62500000 -0.12500000 -0.87500000
 q=  -0.87500000  0.12500000 -0.62500000
 q=  -0.62500000 -0.12500000  0.87500000
 q=  -0.87500000  0.12500000  0.62500000
 q=   0.87500000  0.12500000 -0.62500000
 q=  -0.62500000  0.12500000  0.87500000
 q=  -0.87500000 -0.12500000 -0.62500000
 q=   0.62500000  0.12500000 -0.87500000
 q=  -0.62500000  0.12500000 -0.87500000
 q=  -0.12500000  0.87500000  0.62500000
 q=   0.12500000  0.87500000 -0.62500000
 q=  -0.12500000 -0.87500000 -0.62500000
 q=  -0.12500000  0.62500000 -0.87500000
 q=   0.87500000  0.62500000 -0.12500000
 q=  -0.12500000  0.87500000 -0.62500000
 q=  -0.87500000 -0.62500000 -0.12500000
 q=  -0.87500000  0.62500000  0.12500000
 q=   0.12500000 -0.62500000  0.87500000
 q=   0.12500000 -0.87500000  0.62500000
 q=   0.62500000 -0.87500000  0.12500000
 q=  -0.87500000  0.62500000 -0.12500000
 q=   0.12500000  0.62500000  0.87500000
 q=  -0.12500000  0.62500000  0.87500000
 q=   0.12500000  0.62500000 -0.87500000
 q=  -0.12500000 -0.62500000 -0.87500000
 q=  -0.62500000 -0.87500000  0.12500000
 q=  -0.12500000 -0.62500000  0.87500000
 q=   0.87500000 -0.62500000  0.12500000
 q=   0.62500000  0.87500000  0.12500000
 q=   0.12500000 -0.62500000 -0.87500000
 q=   0.62500000  0.87500000 -0.12500000
 q=  -0.62500000 -0.87500000 -0.12500000
 q=  -0.62500000  0.87500000 -0.12500000
 q=   0.12500000 -0.87500000 -0.62500000
 q=  -0.12500000 -0.87500000  0.62500000
 q=   0.12500000  0.87500000  0.62500000
 q=   0.62500000 -0.87500000 -0.12500000
 q=  -0.87500000 -0.62500000  0.12500000
 q=  -0.62500000  0.87500000  0.12500000
 q=   0.87500000  0.62500000  0.12500000
 q=   0.87500000 -0.62500000 -0.12500000
  reading force constants from file Si.dyn27
  nqs=           24
 q=   0.50000000  0.00000000  0.75000000
 q=   0.75000000  0.00000000  0.50000000
 q=   0.50000000  0.00000000 -0.75000000
 q=   0.75000000  0.00000000 -0.50000000
 q=  -0.75000000  0.00000000  0.50000000
 q=  -0.50000000  0.00000000 -0.75000000
 q=  -0.75000000  0.00000000 -0.50000000
 q=  -0.50000000  0.00000000  0.75000000
 q=   0.00000000  0.75000000  0.50000000
 q=   0.00000000  0.75000000 -0.50000000
 q=   0.00000000 -0.75000000 -0.50000000
 q=   0.00000000  0.50000000 -0.75000000
 q=   0.75000000  0.50000000  0.00000000
 q=  -0.75000000 -0.50000000  0.00000000
 q=  -0.75000000  0.50000000  0.00000000
 q=   0.00000000 -0.50000000  0.75000000
 q=   0.00000000 -0.75000000  0.50000000
 q=   0.50000000 -0.75000000  0.00000000
 q=   0.00000000  0.50000000  0.75000000
 q=   0.00000000 -0.50000000 -0.75000000
 q=  -0.50000000 -0.75000000  0.00000000
 q=   0.75000000 -0.50000000  0.00000000
 q=   0.50000000  0.75000000  0.00000000
 q=  -0.50000000  0.75000000  0.00000000
  reading force constants from file Si.dyn28
  nqs=           12
 q=  -0.25000000 -1.00000000  0.00000000
 q=   0.00000000 -1.00000000  0.25000000
 q=   0.00000000 -1.00000000 -0.25000000
 q=   0.25000000 -1.00000000  0.00000000
 q=  -1.00000000  0.00000000 -0.25000000
 q=   1.00000000  0.00000000  0.25000000
 q=  -1.00000000 -0.25000000  0.00000000
 q=   0.00000000 -0.25000000 -1.00000000
 q=   0.00000000  0.25000000 -1.00000000
 q=   1.00000000  0.25000000  0.00000000
 q=  -0.25000000  0.00000000  1.00000000
 q=   0.25000000  0.00000000  1.00000000
  reading force constants from file Si.dyn29
  nqs=            6
 q=  -0.50000000 -1.00000000  0.00000000
 q=   0.00000000  1.00000000  0.50000000
 q=   0.50000000 -1.00000000  0.00000000
 q=   0.00000000  1.00000000 -0.50000000
 q=  -1.00000000 -0.50000000  0.00000000
 q=   0.00000000 -0.50000000 -1.00000000

      q-space grid ok, #points =  512

      fft-check success (sum of imaginary terms < 10^-12)
 
     Q2R          :      0.19s CPU      0.23s WALL

 
   This run was terminated on:  21:20:16  26Dec2022            

=------------------------------------------------------------------------------=
   JOB DONE.
=------------------------------------------------------------------------------=
