
     Program PWSCF v.7.1 starts on 27Dec2022 at  1:50:45 

     This program is part of the open-source Quantum ESPRESSO suite
     for quantum simulation of materials; please cite
         "P. Giannozzi et al., J. Phys.:Condens. Matter 21 395502 (2009);
         "P. Giannozzi et al., J. Phys.:Condens. Matter 29 465901 (2017);
         "P. Giannozzi et al., J. Chem. Phys. 152 154105 (2020);
          URL http://www.quantum-espresso.org", 
     in publications or presentations arising from this work. More details at
     http://www.quantum-espresso.org/quote

     Parallel version (MPI), running on     1 processors

     MPI processes distributed on     1 nodes
     9388 MiB available memory on the printing compute node when the environment starts
 
     Waiting for input...
     Reading input from standard input
Warning: card &CELL ignored
Warning: card / ignored

     Current dimensions of program PWSCF are:
     Max number of different atomic species (ntypx) = 10
     Max number of k-points (npk) =  40000
     Max angular momentum in pseudopotentials (lmaxx) =  4
 
     Subspace diagonalization in iterative solution of the eigenvalue problem:
     a serial algorithm will be used

 
     G-vector sticks info
     --------------------
     sticks:   dense  smooth     PW     G-vecs:    dense   smooth      PW
     Sum         859     859    265                16889    16889    2891
 
     Using Slab Decomposition
 


     bravais-lattice index     =            2
     lattice parameter (alat)  =      10.2673  a.u.
     unit-cell volume          =     270.5905 (a.u.)^3
     number of atoms/cell      =            2
     number of atomic types    =            1
     number of electrons       =         8.00
     number of Kohn-Sham states=            4
     kinetic-energy cutoff     =      60.0000  Ry
     charge density cutoff     =     240.0000  Ry
     scf convergence threshold =      1.0E-06
     mixing beta               =       0.7000
     number of iterations used =            8  plain     mixing
     Exchange-correlation= PBESOL
                           (   1   4  10   8   0   0   0)

     celldm(1)=  10.267330  celldm(2)=   0.000000  celldm(3)=   0.000000
     celldm(4)=   0.000000  celldm(5)=   0.000000  celldm(6)=   0.000000

     crystal axes: (cart. coord. in units of alat)
               a(1) = (  -0.500000   0.000000   0.500000 )  
               a(2) = (   0.000000   0.500000   0.500000 )  
               a(3) = (  -0.500000   0.500000   0.000000 )  

     reciprocal axes: (cart. coord. in units 2 pi/alat)
               b(1) = ( -1.000000 -1.000000  1.000000 )  
               b(2) = (  1.000000  1.000000  1.000000 )  
               b(3) = ( -1.000000  1.000000 -1.000000 )  


     PseudoPot. # 1 for Si read from file:
     ../pseudo/Si.pbesol-n-rrkjus_psl.1.0.0.UPF
     MD5 check sum: c4212819de858c94c3a1644338846ac9
     Pseudo is Ultrasoft + core correction, Zval =  4.0
     Generated using "atomic" code by A. Dal Corso  v.6.0 svn rev. 13079
     Using radial grid of 1141 points,  6 beta functions with: 
                l(1) =   0
                l(2) =   0
                l(3) =   1
                l(4) =   1
                l(5) =   2
                l(6) =   2
     Q(r) pseudized with 0 coefficients 


     atomic species   valence    mass     pseudopotential
        Si             4.00    28.08550     Si( 1.00)

     48 Sym. Ops., with inversion, found (24 have fractional translation)



   Cartesian axes

     site n.     atom                  positions (alat units)
         1           Si  tau(   1) = (  -0.2500000   0.2500000   0.2500000  )
         2           Si  tau(   2) = (  -0.5000000   0.5000000   0.5000000  )

     number of k points=    28
                       cart. coord. in units 2pi/alat
        k(    1) = (  -0.0833333   0.0833333   0.0833333), wk =   0.0185185
        k(    2) = (  -0.2500000   0.2500000  -0.0833333), wk =   0.0555556
        k(    3) = (  -0.4166667   0.4166667  -0.2500000), wk =   0.0555556
        k(    4) = (   0.4166667  -0.4166667   0.5833333), wk =   0.0555556
        k(    5) = (   0.2500000  -0.2500000   0.4166667), wk =   0.0555556
        k(    6) = (   0.0833333  -0.0833333   0.2500000), wk =   0.0555556
        k(    7) = (  -0.0833333   0.4166667   0.0833333), wk =   0.0555556
        k(    8) = (  -0.2500000   0.5833333  -0.0833333), wk =   0.1111111
        k(    9) = (   0.5833333  -0.2500000   0.7500000), wk =   0.1111111
        k(   10) = (   0.4166667  -0.0833333   0.5833333), wk =   0.1111111
        k(   11) = (   0.2500000   0.0833333   0.4166667), wk =   0.1111111
        k(   12) = (  -0.0833333   0.7500000   0.0833333), wk =   0.0555556
        k(   13) = (   0.7500000  -0.0833333   0.9166667), wk =   0.1111111
        k(   14) = (   0.5833333   0.0833333   0.7500000), wk =   0.1111111
        k(   15) = (   0.4166667   0.2500000   0.5833333), wk =   0.1111111
        k(   16) = (  -0.0833333  -0.9166667   0.0833333), wk =   0.0555556
        k(   17) = (  -0.2500000  -0.7500000  -0.0833333), wk =   0.1111111
        k(   18) = (  -0.0833333  -0.5833333   0.0833333), wk =   0.0555556
        k(   19) = (  -0.2500000   0.2500000   0.2500000), wk =   0.0185185
        k(   20) = (  -0.4166667   0.4166667   0.0833333), wk =   0.0555556
        k(   21) = (   0.4166667  -0.4166667   0.9166667), wk =   0.0555556
        k(   22) = (   0.2500000  -0.2500000   0.7500000), wk =   0.0555556
        k(   23) = (  -0.2500000   0.5833333   0.2500000), wk =   0.0555556
        k(   24) = (   0.5833333  -0.2500000   1.0833333), wk =   0.1111111
        k(   25) = (   0.4166667  -0.0833333   0.9166667), wk =   0.1111111
        k(   26) = (  -0.2500000  -1.0833333   0.2500000), wk =   0.0555556
        k(   27) = (  -0.4166667   0.4166667   0.4166667), wk =   0.0185185
        k(   28) = (   0.4166667  -0.4166667   1.2500000), wk =   0.0555556

     Dense  grid:    16889 G-vectors     FFT dimensions: (  36,  36,  36)

     Estimated max dynamical RAM per process >      64.85 MB

     Initial potential from superposition of free atoms

     starting charge       7.9989, renormalised to       8.0000
     Starting wfcs are    8 randomized atomic wfcs

     total cpu time spent up to now is        0.7 secs

     Self-consistent Calculation

     iteration #  1     ecut=    60.00 Ry     beta= 0.70
     Davidson diagonalization with overlap
     ethr =  1.00E-02,  avg # of iterations =  2.0

     Threshold (ethr) on eigenvalues was too large:
     Diagonalizing with lowered threshold

     Davidson diagonalization with overlap
     ethr =  6.01E-04,  avg # of iterations =  1.7

     total cpu time spent up to now is        1.8 secs

     total energy              =     -22.67488463 Ry
     estimated scf accuracy    <       0.05252179 Ry

     iteration #  2     ecut=    60.00 Ry     beta= 0.70
     Davidson diagonalization with overlap
     ethr =  6.57E-04,  avg # of iterations =  1.0

     total cpu time spent up to now is        2.3 secs

     total energy              =     -22.67691463 Ry
     estimated scf accuracy    <       0.00241257 Ry

     iteration #  3     ecut=    60.00 Ry     beta= 0.70
     Davidson diagonalization with overlap
     ethr =  3.02E-05,  avg # of iterations =  3.0

     total cpu time spent up to now is        3.0 secs

     total energy              =     -22.67783829 Ry
     estimated scf accuracy    <       0.00013083 Ry

     iteration #  4     ecut=    60.00 Ry     beta= 0.70
     Davidson diagonalization with overlap
     ethr =  1.64E-06,  avg # of iterations =  3.7

     total cpu time spent up to now is        3.6 secs

     total energy              =     -22.67789785 Ry
     estimated scf accuracy    <       0.00002447 Ry

     iteration #  5     ecut=    60.00 Ry     beta= 0.70
     Davidson diagonalization with overlap
     ethr =  3.06E-07,  avg # of iterations =  3.2

     total cpu time spent up to now is        4.3 secs

     End of self-consistent calculation

          k =-0.0833 0.0833 0.0833 (  2103 PWs)   bands (ev):

    -5.7455   5.2745   5.9974   5.9974

          k =-0.2500 0.2500-0.0833 (  2117 PWs)   bands (ev):

    -5.2661   3.1832   4.7380   5.7892

          k =-0.4167 0.4167-0.2500 (  2121 PWs)   bands (ev):

    -4.1648   0.3983   4.2747   5.1462

          k = 0.4167-0.4167 0.5833 (  2115 PWs)   bands (ev):

    -3.4551  -0.7603   4.3454   4.7600

          k = 0.2500-0.2500 0.4167 (  2118 PWs)   bands (ev):

    -4.5807   1.2521   4.8161   4.8496

          k = 0.0833-0.0833 0.2500 (  2113 PWs)   bands (ev):

    -5.5035   4.2025   5.3396   5.5321

          k =-0.0833 0.4167 0.0833 (  2110 PWs)   bands (ev):

    -5.0237   3.0074   4.5858   4.6016

          k =-0.2500 0.5833-0.0833 (  2115 PWs)   bands (ev):

    -4.1071   1.1608   3.2431   4.2094

          k = 0.5833-0.2500 0.7500 (  2128 PWs)   bands (ev):

    -2.9761  -0.6140   2.6377   3.9780

          k = 0.4167-0.0833 0.5833 (  2120 PWs)   bands (ev):

    -3.7083   0.4599   2.5887   4.4732

          k = 0.2500 0.0833 0.4167 (  2114 PWs)   bands (ev):

    -4.7965   2.1585   3.9500   5.1542

          k =-0.0833 0.7500 0.0833 (  2118 PWs)   bands (ev):

    -3.3921   0.3406   3.2107   3.5648

          k = 0.7500-0.0833 0.9167 (  2133 PWs)   bands (ev):

    -2.1858  -1.0050   2.3463   3.1434

          k = 0.5833 0.0833 0.7500 (  2129 PWs)   bands (ev):

    -2.5538  -0.6776   1.8547   3.6970

          k = 0.4167 0.2500 0.5833 (  2120 PWs)   bands (ev):

    -3.5927  -0.2465   3.5544   4.5755

          k =-0.0833-0.9167 0.0833 (  2127 PWs)   bands (ev):

    -2.2810  -1.0145   2.9379   3.3480

          k =-0.2500-0.7500-0.0833 (  2126 PWs)   bands (ev):

    -3.2208   0.1144   2.6758   3.4883

          k =-0.0833-0.5833 0.0833 (  2113 PWs)   bands (ev):

    -4.3148   1.7095   3.7634   3.9900

          k =-0.2500 0.2500 0.2500 (  2115 PWs)   bands (ev):

    -5.0349   2.1924   5.3782   5.3782

          k =-0.4167 0.4167 0.0833 (  2123 PWs)   bands (ev):

    -4.3510   1.2661   3.2051   5.2099

          k = 0.4167-0.4167 0.9167 (  2131 PWs)   bands (ev):

    -3.1604  -0.1764   2.0796   4.4118

          k = 0.2500-0.2500 0.7500 (  2126 PWs)   bands (ev):

    -3.1091  -0.2557   2.5689   3.9228

          k =-0.2500 0.5833 0.2500 (  2121 PWs)   bands (ev):

    -3.9233   0.4495   3.6847   4.2997

          k = 0.5833-0.2500 1.0833 (  2132 PWs)   bands (ev):

    -2.9127  -0.2814   2.1807   3.4801

          k = 0.4167-0.0833 0.9167 (  2146 PWs)   bands (ev):

    -2.0745  -1.0126   2.0085   2.7990

          k =-0.2500-1.0833 0.2500 (  2129 PWs)   bands (ev):

    -2.2858  -0.9240   1.8803   3.7264

          k =-0.4167 0.4167 0.4167 (  2120 PWs)   bands (ev):

    -3.8304  -0.3556   4.9896   4.9896

          k = 0.4167-0.4167 1.2500 (  2121 PWs)   bands (ev):

    -3.2185  -0.6536   3.1215   4.5410

     highest occupied level (ev):     5.9974

!    total energy              =     -22.67790548 Ry
     estimated scf accuracy    <       0.00000025 Ry

     The total energy is the sum of the following terms:
     one-electron contribution =       5.16675186 Ry
     hartree contribution      =       1.08084699 Ry
     xc contribution           =     -12.13656919 Ry
     ewald contribution        =     -16.78893514 Ry

     convergence has been achieved in   5 iterations

     Writing all to output data dir ./out/Si.save/
 
     init_run     :      0.55s CPU      0.61s WALL (       1 calls)
     electrons    :      3.31s CPU      3.61s WALL (       1 calls)

     Called by init_run:
     wfcinit      :      0.23s CPU      0.24s WALL (       1 calls)
     potinit      :      0.04s CPU      0.05s WALL (       1 calls)
     hinit0       :      0.22s CPU      0.22s WALL (       1 calls)

     Called by electrons:
     c_bands      :      2.55s CPU      2.57s WALL (       6 calls)
     sum_band     :      0.57s CPU      0.74s WALL (       6 calls)
     v_of_rho     :      0.10s CPU      0.11s WALL (       6 calls)
     newd         :      0.16s CPU      0.30s WALL (       6 calls)
     mix_rho      :      0.01s CPU      0.01s WALL (       6 calls)

     Called by c_bands:
     init_us_2    :      0.23s CPU      0.23s WALL (     364 calls)
     init_us_2:cp :      0.23s CPU      0.23s WALL (     364 calls)
     cegterg      :      1.74s CPU      1.76s WALL (     168 calls)

     Called by *egterg:
     cdiaghg      :      0.03s CPU      0.03s WALL (     549 calls)
     h_psi        :      1.66s CPU      1.67s WALL (     605 calls)
     s_psi        :      0.10s CPU      0.10s WALL (     605 calls)
     g_psi        :      0.01s CPU      0.01s WALL (     409 calls)

     Called by h_psi:
     h_psi:calbec :      0.11s CPU      0.11s WALL (     605 calls)
     vloc_psi     :      1.44s CPU      1.45s WALL (     605 calls)
     add_vuspsi   :      0.10s CPU      0.10s WALL (     605 calls)

     General routines
     calbec       :      0.14s CPU      0.14s WALL (     773 calls)
     fft          :      0.02s CPU      0.02s WALL (      67 calls)
     ffts         :      0.00s CPU      0.00s WALL (       6 calls)
     fftw         :      1.36s CPU      1.37s WALL (    4990 calls)
 
     Parallel routines
 
     PWSCF        :      3.94s CPU      4.33s WALL

 
   This run was terminated on:   1:50:49  27Dec2022            

=------------------------------------------------------------------------------=
   JOB DONE.
=------------------------------------------------------------------------------=
